default_name
 87058
  40.2634050  65.5687419  47.3067481  39.5920520  65.6986727  46.5634419
  40.9236118  66.3327824  47.2850818  39.7662196  65.3549709  48.1595131
  41.0626254  64.3490306  47.0006828  42.1125853  64.6157499  46.8800834
  40.9281514  63.2810178  48.0999674  39.8978545  62.9257686  48.1196349
  41.8767749  62.0927779  47.8331483  42.9073650  62.4471934  47.8137980
  41.7628181  61.3514970  48.6241080  41.6309179  61.6394358  46.8728700
  41.2280283  63.8934553  49.4600263  40.6528456  64.8161393  49.5369585
  42.2925537  64.1262824  49.4860663  40.8801215  62.9804472  50.6267645
  41.4553004  62.0576834  50.5507652  41.1199265  63.4812428  51.5647392
  39.8155920  62.7475384  50.6016559  40.5450854  63.7453783  45.7282516
  39.3588949  63.4065365  45.5987709  41.4264942  63.6819945  44.7695243
  42.2881507  64.2039835  44.8414615  41.1507329  62.9944144  43.5470046
  40.0893034  62.7633425  43.4571586  41.5460242  63.9054154  42.4040086
  42.6324703  63.9140758  42.3164916  41.1106254  63.5249291  41.4800183
  41.0433069  65.3294473  42.6561387  40.4212610  65.2965820  43.5506103
  41.9188552  65.9503941  42.8457157  40.2454990  65.9177912  41.5068542
  40.2138328  65.3062771  40.4080540  39.6440938  67.0021284  41.7029013
  41.8099292  61.6048428  43.4876329  42.8287402  61.3142795  44.1454529
  41.1804040  60.7552032  42.6870052  40.4251151  61.1246651  42.1274197
  41.5070354  59.3476246  42.5581474  41.6165702  58.8766138  43.5350047
  40.3504123  58.6708636  41.8151894  40.2277726  59.1850612  40.8619530
  40.6384160  57.6352663  41.6343795  39.0376320  58.7050606  42.5817143
  38.8792249  59.7374949  42.8933029  38.2152797  58.3896427  41.9395693
  39.0543381  57.8321923  43.8036537  39.3236757  56.6194752  43.7229354
  38.7230587  58.4268953  44.9449614  38.7145924  57.8955216  45.8038395
  38.4812704  59.4075222  44.9482551  42.7735400  59.0206893  41.7896512
  42.9424122  59.4252804  40.6478060  43.6859331  58.2587980  42.4116089
  43.6630064  57.7769311  43.8085429  43.0442512  56.8831445  43.8884656
  43.2692542  58.5508941  44.4673598  45.1249790  57.4947237  44.0612111
  45.2069834  56.6947901  44.7970647  45.5953827  58.3969401  44.4521424
  45.7132333  57.1122128  42.7984438  45.6406334  56.0348042  42.6500553
  46.7596329  57.4145268  42.7565671  44.8992017  57.8561973  41.6931793
  45.3803871  58.7758050  41.3601921  44.6754936  56.9300594  40.4869885
  43.7232985  56.1593640  40.5912481  45.4918424  56.9620922  39.4119003
  46.2014252  57.6795795  39.3694311  45.3780456  56.0288196  38.2855507
  44.4475057  56.2394081  37.7584385  46.5447494  56.1320630  37.2850369
  47.4596905  56.1649337  37.8765616  46.5283358  55.2171993  36.6927067
  46.4992826  57.2866254  36.3965210  45.8542207  57.0108724  35.5622811
  46.0356575  58.0950680  36.9618300  47.8197674  57.7395789  35.8744424
  47.7342989  58.7936540  35.6103974  48.5549321  57.6234916  36.6707815
  48.2754526  57.0048385  34.7109818  47.7093120  56.2296354  34.3969049
  49.4204902  57.2662333  34.0613236  50.1842490  58.2830198  34.4292144
  49.9038545  58.8667104  35.2043171  51.0438164  58.4703810  33.9330903
  49.7834132  56.5440306  33.0152342  49.1944485  55.7867546  32.6993958
  50.6479785  56.7528705  32.5366827  45.3076219  54.6022297  38.7498597
  44.5832071  53.7890500  38.1870988  46.1301355  54.2775248  39.7715858
  46.7288586  54.9849985  40.1729721  46.2507045  52.9211678  40.2576236
  46.1746146  52.2086800  39.4362402  47.6327154  52.7585123  40.9251609
  47.6076762  51.8336269  41.5014067  48.4114322  52.6916529  40.1654043
  48.0496271  53.8424920  41.8721486  48.9459004  54.8244444  41.6374388
  49.3983544  54.8342735  40.6458297  49.0948005  55.6223813  42.7391917
  49.6784934  56.4441597  42.8030849  48.2807423  55.1426335  43.7363116
  48.0582468  55.6200695  45.0310582  48.5812349  56.5225057  45.3475879
  47.2027942  54.9284109  45.8151023  47.0591890  55.2261699  46.8537635
  46.4813582  53.8141608  45.3126804  45.7384874  53.2958820  45.9190050
  46.7038762  53.3590074  44.0407479  46.1478334  52.4779653  43.7203078
  47.6034110  54.0226179  43.2221196  45.1409809  52.4722067  41.2160240
  45.1397542  51.3399571  41.6363147  44.2782848  53.3621979  41.6961251
  44.3179145  54.3252580  41.3943899  43.2849255  52.9909239  42.7210768
  43.7867266  52.3325457  43.4301840  42.7516651  54.2279369  43.4860462
  42.2385895  54.8923600  42.7907797  42.0553741  53.9048535  44.2599300
  43.5852799  54.7582345  43.9464483  42.1210619  52.2395426  42.1294245
  41.6271744  52.5882212  41.0527061  41.6637342  51.2005652  42.8130138
  42.0579009  50.9322630  43.7033766  40.5521698  50.4061608  42.2763051
  40.7798456  50.0410625  41.2748231  40.3456564  49.2220620  43.1851078
  41.2265621  48.5808978  43.1532832  40.1868682  49.5700343  44.2057946
  39.2034205  48.4829057  42.7514326  39.0717695  47.7285102  43.3303586
  39.2873678  51.2009342  42.2119078  38.9472191  51.9401350  43.1246466
  38.5549111  51.0466245  41.1057027  38.9177696  50.4982948  40.3390426
  37.2434142  51.6552938  40.9574075  37.1701763  52.5148291  41.6236916
  36.9962752  52.1258165  39.5241302  37.1621643  51.2701451  38.8696026
  35.9528382  52.4344788  39.4603580  37.8926577  53.2766062  39.0909841
  37.6938083  54.1440474  39.7203533  38.9360172  52.9806639  39.2001682
  37.6216952  53.6233191  37.6685048  38.4871620  54.1547397  37.2727039
  37.4772983  52.6984187  37.1101070  36.3952569  54.4890264  37.5318953
  35.6067996  54.0659473  38.1543418  36.6412276  55.4893930  37.8880754
  35.9218667  54.5670241  36.1097775  35.6934830  53.6402144  35.7796798
  35.1014016  55.1539129  36.0597910  36.6521683  54.9594294  35.5329094
  36.1375934  50.6724819  41.3243108  34.9515129  51.0432951  41.1820311
  36.4972665  49.4460925  41.7483514  37.4852479  49.2417863  41.7957981
  35.5480987  48.3875208  42.1211106  34.9692233  48.1042757  41.2420346
  36.2626605  47.1326350  42.6665227  37.0841081  46.8967802  41.9899907
  36.6622589  47.3802949  43.6499279  35.3366525  45.9236449  42.7833524
  34.6704045  45.7502121  43.8534606  35.1977326  45.0680079  41.8430123
  34.6198768  48.9064611  43.1536541  35.0468305  49.6232787  44.0695257
  33.3468334  48.4962313  43.0947731  33.0012162  47.8754215  42.3769686
  32.4025654  49.0149318  44.0703651  32.3911654  50.1043108  44.0353971
  30.9935006  48.5008709  43.7638609  30.2895992  48.8882586  44.5004427
  30.6902728  48.8231169  42.7677131  31.0032020  47.0931023  43.8190284
  30.1235622  46.7593267  43.6281685  32.7682996  48.6613265  45.5187251
  32.3792246  49.3816927  46.4419744  33.4981216  47.5516741  45.7224832
  33.7455125  46.9840865  44.9245224  33.9087157  47.0879458  47.0690123
  33.1667765  47.4830465  47.7629293  33.8795330  45.5361418  47.1414660
  34.6235836  45.1259573  46.4586502  34.1044099  45.2150902  48.1585483
  32.8901047  45.1772073  46.8580986  35.3056521  47.5661969  47.5227155
  35.6820373  47.3043451  48.6491363  36.0696578  48.2465914  46.6799382
  35.7189236  48.4656262  45.7584673  37.5322241  48.5256043  46.9786967
  37.9406056  47.5520356  46.7076105  37.9876189  49.5363804  45.9648923
  37.5941063  50.5182524  46.2279042  39.0769090  49.5735908  45.9521322
  37.6227285  49.2517236  44.9780161  38.1006240  48.9033126  48.4138995
  39.1134782  48.3441062  48.9767438  37.4558887  49.8835470  48.9909245
  36.6738763  50.2792878  48.4889831  37.7905084  50.4383835  50.3029306
  38.7056216  49.9797799  50.6775633  37.9304400  51.5165778  50.2253704
  36.6639914  50.1562663  51.2752985  36.5474502  50.8419284  52.2840283
  35.8693384  49.1091282  51.0269833  36.0280221  48.5363967  50.2103455
  34.7769094  48.7617915  51.9049139  34.4918259  49.5882988  52.5558457
  33.5686031  48.3652134  51.0632426  33.8358804  47.5325363  50.4126185
  32.7510691  48.0654359  51.7188888  33.2540015  49.2138121  50.4557845
  35.1738269  47.6254955  52.7625304  35.9135026  46.7545178  52.3280196
  34.6954743  47.6584587  53.9848128  34.0863426  48.4210460  54.2446559
  35.0059857  46.6596996  54.9815213  36.0792934  46.4887321  55.0644664
  34.4991262  47.1471443  56.2936426  33.4239487  47.3142401  56.2290478
  34.7050287  46.4025571  57.0625993  34.9967538  48.0820463  56.5513713
  34.3551485  45.3340670  54.6352122  33.1865218  45.2646546  54.2185846
  35.0876082  44.2563520  54.8473988  36.0502074  44.3645175  55.1334101
  34.5804190  42.9061167  54.6206639  33.5205348  42.9367441  54.3680638
  35.3352629  42.2717796  53.4680303  36.3320631  41.9742920  53.7935910
  34.7958438  41.3967957  53.1053591  35.4443549  43.2264374  52.4234671
  35.9205474  42.8397435  51.6850172  34.6770327  42.0368641  55.8622679
  34.3791301  40.8290751  55.8012290  35.1261772  42.6277612  56.9779435
  35.3921832  43.6012298  56.9367247  35.2563499  41.9301186  58.2485787
  34.5496577  41.1002941  58.2398245  36.6627785  41.3728603  58.4902060
  36.6016763  40.6712184  59.3221107  37.2476969  40.6616502  57.2640548
  37.3095430  41.3628315  56.4318172  38.2447977  40.2900207  57.5002339
  36.6051149  39.8258327  56.9872914  37.5297904  42.4771248  58.8026676
  38.4192992  42.1514119  58.9585054  34.9319034  42.8868593  59.3739176
  34.9921482  44.1036819  59.1885765  34.6682212  42.3485701  60.5436528
  34.3325592  40.9104863  60.7806063  35.2503552  40.3237059  60.8185494
  33.7017480  40.5453738  59.9701317  33.6133204  40.9401324  62.0958285
  33.7472239  39.9973825  62.6262920  32.5494957  41.1239452  61.9455250
  34.2612183  42.0905377  62.8397250  35.2350875  41.7941923  63.2294138
  33.6545046  42.4959605  63.6494351  34.4388939  43.1469843  61.7382379
  33.5160289  43.7109459  61.6027179  35.5977756  44.1191139  62.0032614
  35.3468647  45.2819277  62.3061038  36.8175644  43.6288327  61.9426096
  37.0058558  42.6496619  61.7817676  37.9520535  44.5238172  62.1833299
  37.8364570  45.0300256  63.1417086  39.2263862  43.7261663  62.2118679
  39.1059486  43.0240625  61.3868562  40.0942223  44.3589521  62.0260116
  39.4277459  42.9617096  63.4971077  38.6711912  43.1649038  64.4920776
  40.4028149  42.1929752  63.6086824  38.0568870  45.6430789  61.1429434
  38.4047073  46.7847100  61.4753518  37.8134521  45.3123686  59.8958892
  37.6841164  44.3493776  59.6201722  37.8592673  46.3352938  58.8471290
  38.8026313  46.8752646  58.9283390  37.7528412  45.7487071  57.4436592
  36.8445309  45.1470716  57.4103940  37.6610466  46.5830611  56.7482980
  38.9402446  44.8924685  57.0509421  39.8195368  45.5350611  57.0958941
  39.0305570  44.1013903  57.7953467  38.8349581  44.2763307  55.6692768
  37.9354738  44.6688740  54.8859610  39.6496410  43.3787839  55.3426966
  36.7995838  47.3862284  59.1149136  37.0012316  48.5889849  58.8662452
  35.6411596  46.9345887  59.5943464  35.4648585  45.9435900  59.6776466
  34.5677385  47.8477344  59.8985388  34.3360197  48.4661142  59.0313525
  33.2901709  47.0280959  60.2845062  33.6130576  46.3156914  61.0436657
  32.6009620  47.7455074  60.7299408  32.5838455  46.2788872  59.1485974
  32.3344082  46.9810269  58.3530588  33.2473355  45.5077797  58.7570923
  31.2893229  45.6226821  59.6808627  31.4770252  45.3471947  60.7186360
  30.5094656  46.3832536  59.6427439  30.8376465  44.3936592  58.9035390
  30.2221940  44.7179983  58.0644187  31.7194341  43.8748355  58.5275445
  30.0334517  43.4512600  59.7876971  29.2160952  43.9316884  60.1358587
  29.7469347  42.6464982  59.2488406  30.6037024  43.1502660  60.5650747
  34.9596012  48.8567969  60.9755302  34.6835696  50.0562958  60.8073098
  35.5904684  48.3568270  62.0334482  35.7271797  47.3586492  62.1045147
  36.0590761  49.2035660  63.1367509  35.2572223  49.8205486  63.5422902
  36.6870282  48.3770873  64.2639045  37.3910127  47.6636085  63.8355889
  37.4335259  49.3080708  65.2550199  36.7300520  50.0215802  65.6841229
  37.8761332  48.7107873  66.0521723  38.2196801  49.8469520  64.7261836
  35.6561998  47.5007682  64.9981406  34.9972981  48.1838057  65.5342461
  35.0889783  46.9802516  64.2265048  36.2431575  46.4728673  65.9852993
  36.8101701  46.9927056  66.7575459  35.4331391  45.9087799  66.4476571
  36.9018525  45.7891525  65.4498045  37.0918817  50.2286313  62.5591502
  37.0247449  51.4378335  62.8737049  38.0112253  49.7728160  61.7020074
  38.0576505  48.7950888  61.4530224  39.0522643  50.6615171  61.2060830
  39.5172758  51.2449850  62.0007079  40.1550657  49.8739998  60.4611545
  39.6732285  49.1610175  59.7921341  41.0774492  50.8077342  59.6415359
  41.5600294  51.5207518  60.3099844  41.8378782  50.2141225  59.1341175
  40.4851002  51.3469994  58.9023355  40.9303732  49.0631913  61.4628815
  40.2581525  48.3696633  61.9680945  41.7119967  48.5024320  60.9503258
  41.3836661  49.7290167  62.1972540  38.4269663  51.7734656  60.3453838
  38.8364790  52.9446166  60.4279830  37.4156076  51.4432214  59.5192498
  37.1045032  50.4906236  59.3932705  36.7947738  52.4767053  58.7250139
  37.5805266  53.0756045  58.2645670  35.8897928  51.9294126  57.6237877
  35.2519381  51.1915389  58.1103912  35.2729565  52.7321183  57.2197128
  36.6610102  51.2658844  56.4943015  37.2782749  50.4544135  56.8797884
  35.6578438  50.7136693  55.5252697  35.0404691  51.5246719  55.1389770
  36.1784053  50.2289194  54.6993556  35.0247011  49.9855967  56.0323604
  37.6035386  52.1857152  55.8095712  38.3317838  52.5616211  56.5282180
  38.1218138  51.6498513  55.0143719  37.0501265  53.0220907  55.3825935
  35.9818216  53.4486603  59.6241764  35.9360407  54.6400435  59.3102414
  35.3982552  52.9792861  60.7359912  35.3607866  51.9874635  60.9230298
  34.7448142  53.8937789  61.6863421  34.0163528  54.5031941  61.1514999
  34.0240136  53.1372496  62.8011228  34.7139690  52.3884071  63.1900901
  33.7873700  53.8552057  63.5863864  32.7389790  52.4519014  62.3331807
  32.0308757  53.2449558  62.0928576  32.9875032  51.9003711  61.4264563
  32.1210801  51.5150159  63.3365170  32.6194377  51.4688015  64.4757930
  31.1285642  50.8152895  62.9855111  35.8031434  54.8377495  62.2685694
  35.5552942  56.0507213  62.4025811  36.9659922  54.2855472  62.5912355
  37.0867326  53.2841202  62.5396109  38.0661143  55.0914613  63.1295569
  37.7416014  55.6564905  64.0033604  39.1804301  54.1595690  63.5438589
  38.7614139  53.4301712  64.2370425  39.6316935  53.6394936  62.6988838
  40.3044810  54.8532363  64.2742377  41.6155525  54.8502940  63.7890564
  41.8243277  54.3444781  62.8463671  42.6163248  55.4596368  64.4660801
  43.6191863  55.4586536  64.0390336  42.3888435  56.0612832  65.6500344
  43.2041743  56.5520269  66.1815476  41.1095028  56.0547873  66.1933198
  40.9189898  56.5120285  67.1642655  40.0688584  55.4594123  65.4890174
  39.0582409  55.4701152  65.8972302  38.5089859  56.1523004  62.1148209
  38.7358595  57.3124277  62.4671986  38.6294878  55.7676125  60.8464012
  38.4770390  54.8088654  60.5677209  39.0182989  56.7146685  59.8409844
  39.9866238  57.1375633  60.1085773  39.1285496  56.0849128  58.4797707
  38.1907867  55.5551261  58.3123613  39.2123849  56.9074350  57.7694687
  40.3046326  55.1175547  58.2832610  40.1210346  54.2722615  58.9464894
  40.2569563  54.7827342  57.2470543  41.9276871  55.7783936  58.6115754
  42.0831424  55.4460106  60.3710083  42.0065924  54.3729979  60.5467438
  43.0501617  55.8035243  60.7247856  41.2870837  55.9596444  60.9100558
  38.0138174  57.8660414  59.7705888  38.3906328  59.0301777  59.5937450
  36.7118637  57.5445759  59.8639711  36.4161621  56.5789809  59.8808938
  35.6903641  58.5782757  59.8752115  35.7793452  59.2007755  58.9848882
  34.2950240  57.9386192  59.8890484  34.3501084  57.1578353  60.6476270
  33.5626029  58.6871386  60.1913365  33.8759405  57.3271566  58.5629581
  34.4841965  57.6288016  57.5131619  32.8903405  56.5532074  58.4862880
  35.8692382  59.5128295  61.0672217  35.6497813  60.7153661  60.9779892
  36.2603659  58.9550653  62.1883993  36.4216131  57.9587036  62.2253051
  36.3986985  59.7205888  63.4142638  35.5204566  60.3594871  63.5069959
  36.4434944  58.8174617  64.5646954  37.3226405  58.1773568  64.4907502
  36.4959873  59.4012132  65.4837051  35.5452727  58.2001086  64.5778183
  37.6342538  60.6349377  63.4035709  37.6800829  61.5587722  64.2043252
  38.6351683  60.3988915  62.5451186  38.5896662  59.6202728  61.9034162
  39.8562036  61.2226790  62.5581072  40.3268645  61.1542101  63.5388669
  40.8612755  60.7537343  61.4982225  40.2810826  60.6728197  60.5790227
  41.6137936  61.5340845  61.3847763  41.5431760  59.4335072  61.7815473
  40.7894751  58.6479770  61.8361185  42.5168911  59.1122490  60.7026770
  43.2712214  59.8971524  60.6478030  42.9997549  58.1595551  60.9202033
  41.9937991  59.0444361  59.7488025  42.2289078  59.4994150  63.0997214
  41.4967472  59.7037676  63.8809258  42.7197504  58.5475482  63.3025131
  42.9734829  60.2952992  63.0831317  39.5651693  62.7052828  62.3501311
  40.2654691  63.5579675  62.9211882  38.5584746  63.0313197  61.5207629
  38.0465393  62.3167980  61.0232889  38.2381898  64.4183141  61.2524772
  39.1648052  64.9531188  61.0439895  37.3154996  64.5537288  60.0462224
  36.9940568  65.5933491  59.9832580  37.9988013  64.1531573  58.7421778
  38.3201311  63.1134469  58.8042173  37.2988753  64.2678180  57.9144969
  38.8662489  64.7916288  58.5748774  36.1791609  63.6854350  60.2170153
  35.5961689  63.7685014  59.4588461  37.6153292  65.1294396  62.4667383
  37.4362617  66.3346527  62.4056222  37.3595586  64.4144207  63.5605917
  37.4414956  63.4077518  63.5624307  36.9653882  65.0783964  64.7980610
  36.1315994  65.7530090  64.6036562  36.5321459  64.0572742  65.8425936
  36.0608553  64.6006991  66.6615404  35.8005829  63.3969769  65.3768436
  37.6205775  63.2798486  66.3505070  37.2916456  62.6559185  67.0017481
  38.1006507  65.8826823  65.4162666  37.8629824  66.7905601  66.2292916
  39.3397276  65.5212971  65.0865892  39.4950120  64.7592623  64.4421600
  40.5261303  66.1872726  65.6911967  41.4242846  65.6366070  65.4115801
  40.6744419  67.6467817  65.2146899  39.6925772  68.0701363  65.4263780
  41.4357205  68.2065820  65.7579933  40.9464213  67.7744447  63.7325011
  41.8029260  67.1063298  63.1894192  40.2864641  68.7661628  63.0939380
  40.4246381  68.9041401  62.1029940  39.6581101  69.3647770  63.6105936
  40.4241881  66.1483945  67.2178670  40.9068520  67.0527051  67.9027370
  39.8566012  65.0806560  67.7435871  39.6123830  64.3196254  67.1261009
  39.5043928  64.9659072  69.1584073  39.8608305  65.8323485  69.7154808
  37.9574213  64.8980466  69.2824956  37.5464568  65.7731324  68.7790751
  37.6397647  63.9960441  68.7594412  37.4627895  64.8565067  70.6915701
  38.2572608  64.6322408  71.6246924  36.2464475  65.0612783  70.9125540
  40.1691008  63.7521938  69.7891917  39.7077088  62.6311369  69.6159442
  41.2970328  63.9585571  70.4632166  41.6629413  64.8970423  70.5370809
  42.0732958  62.8693660  71.0327582  42.3614311  62.2115329  70.2127992
  43.3468817  63.4107885  71.6982232  43.0746972  64.0641406  72.5271663
  43.9435415  62.5789885  72.0726642  43.9277214  63.9741016  70.9678788
  41.2635109  62.0327023  72.0279468  41.4678559  60.8257622  72.1244757
  40.4249420  62.6866954  72.8226393  40.3746043  63.6950220  72.7936056
  39.5938216  61.9733485  73.8100982  40.2440474  61.3632649  74.4370780
  38.8528376  62.9880112  74.7079781  38.1908688  63.6002726  74.0955785
  38.2651856  62.4526823  75.4537586  39.5787030  63.6282800  75.2092511
  38.5987311  61.0363430  73.1363649  38.3263438  59.9361084  73.6216473
  38.0265543  61.4676057  72.0476614  38.1685360  62.4137147  71.7239050
  37.1313759  60.5986108  71.2811912  36.3625051  60.1839159  71.9330846
  36.4533634  61.3992925  70.1770477  35.9163721  62.2018616  70.6826387
  37.2620520  61.8228323  69.5814499  35.4796236  60.6304950  69.2517330
  36.0110524  59.8077405  68.7734451  34.6558966  60.2340160  69.8453492
  34.9307641  61.5679697  68.1850215  34.4113411  62.3872735  68.6820529
  35.7688971  61.9643516  67.6118603  33.9654556  60.8498531  67.2443000
  34.5421862  60.3871487  66.4434336  33.4428226  60.0771789  67.8081516
  32.9657487  61.8011663  66.6550477  33.4498053  62.5169786  66.1321694
  32.3436456  61.2970961  66.0394172  32.4309416  62.2297077  67.3969592
  37.8925864  59.4234081  70.6705373  37.4545832  58.2959014  70.6671054
  39.0548705  59.7258318  70.1046597  39.4005193  60.6748184  70.0975320
  39.8048740  58.7167336  69.3867039  39.1390406  58.1572406  68.7296403
  40.9034698  59.3753709  68.5296052  41.4898953  59.9891377  69.2133410
  41.5387127  58.5988992  68.1033913  40.3507536  60.2479793  67.4123320
  39.6529542  60.9608560  67.8516312  41.4326985  60.9900197  66.6882621
  42.1306799  60.2777498  66.2482707  40.9910222  61.5994603  65.8998429
  41.9645136  61.6333720  67.3892406  39.5568112  59.4288479  66.3888115
  38.7193452  58.9390179  66.8856179  39.1795691  60.0892981  65.6080457
  40.2060628  58.6748309  65.9438062  40.3834130  57.6621007  70.2978065
  40.4621247  56.4900489  69.9112319  40.7654296  58.0419640  71.5032908
  40.6577037  59.0018241  71.7985247  41.4708905  57.1180912  72.3916206
  42.2378464  56.5674849  71.8469092  42.1085521  57.8194384  73.6088838
  42.6013962  58.7237593  73.2519401  41.0675914  58.1939615  74.7035615
  40.5746294  57.2900379  75.0613479  41.5742037  58.6842266  75.5348767
  40.3238529  58.8702940  74.2822224  43.2024272  56.9374695  74.1791436
  43.5420790  57.4032355  75.1042379  42.7521228  55.9705883  74.4037906
  44.3892901  56.7397001  73.2451198  44.8404298  57.7061694  73.0203754
  45.1274888  56.0976839  73.7257205  44.0504729  56.2735239  72.3199266
  40.5551139  55.9796651  72.8202933  41.0378589  54.9082102  73.1984358
  39.2474315  56.1930194  72.7660005  38.8647878  57.1035771  72.5548896
  38.3216220  55.1165285  73.1198575  38.5609624  54.7270066  74.1093463
  36.8822766  55.6495641  73.1375211  36.6974270  56.1155784  72.1696572
  36.2206348  54.7919900  73.2595735  36.6130644  56.6634052  74.2509554
  37.2619597  57.5181486  74.0600376  35.5712228  56.9748568  74.1757013
  36.8801010  56.1283443  75.6411292  37.5041296  56.8519455  76.4664168
  36.4827606  54.9785799  75.9151593  38.4138417  53.8956908  72.2378775
  37.9610403  52.8221891  72.6090367  39.0345405  54.0374824  71.0629689
  39.3743723  54.9473675  70.7859799  39.2286321  52.9177103  70.1465232
  38.3365521  52.2916158  70.1292604  39.4910008  53.4366720  68.7265347
  40.2301028  54.2332238  68.8121657  39.9197108  52.6020391  68.1718315
  38.2753271  53.9548819  67.9957277  37.8035597  55.2385201  68.2069464
  38.3183986  55.8742776  68.9272608  36.7014754  55.7189721  67.5246964
  36.3372007  56.7287620  67.7137206  36.0561320  54.9134747  66.6124164
  34.9690142  55.4064054  65.9379951  34.7548621  56.3100730  66.1811483
  36.5127437  53.6589352  66.3910699  36.0075580  53.0374160  65.6517447
  37.5966978  53.1639590  67.0818254  37.9295009  52.1399126  66.9124996
  40.3837488  52.0349572  70.5405365  40.5415979  50.9733350  69.9236021
  41.2189717  52.4683997  71.4806542  40.9814368  53.3090740  71.9875499
  42.4851280  51.7999090  71.7974417  42.7772866  51.1395931  70.9809091
  43.5900875  52.8530276  71.9978807  43.2715759  53.6279240  72.6951505
  44.4933580  52.3740004  72.3756841  43.9747075  53.5522319  70.7244229
  43.1775745  54.5316326  70.2267180  42.2593793  54.7814489  70.7583281
  43.5101173  55.2054125  69.0727783  42.8711543  56.0082232  68.7049169
  44.6646250  54.8597403  68.3756867  44.9241339  55.3608331  67.4431305
  45.4905440  53.8625368  68.8822477  46.4051962  53.5877588  68.3568824
  45.1516975  53.2256805  70.0441819  45.8027299  52.4521959  70.4515860
  42.4159038  50.9269562  73.0514586  41.8110301  51.3067555  74.0655988
  43.0875064  49.7989306  73.0247326  43.4267271  49.4765451  72.1296928
  43.3857810  48.9915328  74.2139642  42.4745370  48.8067728  74.7828203
  43.9651213  47.6725305  73.7949608  44.8832018  47.8407432  73.2319931
  44.1861354  47.0748235  74.6792681  43.2475231  47.1423926  73.1687771
  44.4010383  49.6713436  75.1233205  45.0661899  50.6121022  74.6954894
  44.4495519  49.2718374  76.4070866  43.7562789  48.6477557  76.7943770
  45.5008034  49.7838751  77.2971399  45.4589333  50.8719906  77.3456244
  45.2914536  49.2184656  78.7179079  45.2404495  48.1330020  78.6326643
  46.1632305  49.4952746  79.3107670  44.0383100  49.7304452  79.3946811
  43.1991117  49.5393932  78.7258417  43.8927349  49.1819282  80.3252918
  44.1197493  51.2085976  79.6897185  45.2499380  51.7011823  79.9374358
  43.0590260  51.8853952  79.6898084  46.9082848  49.4369401  76.8091049
  47.7873727  50.2964206  76.7932679  47.1396797  48.1861514  76.4183674
  46.3918800  47.5128390  76.5052318  48.4425549  47.7249569  75.8764780
  49.2427759  48.3131427  76.3256806  48.6998854  46.2258063  76.1785830
  48.5229160  46.0151111  77.2332814  47.9569107  45.7046572  75.5748511
  50.1506075  45.7278566  75.7766806  50.5470674  44.5907163  76.1571282
  50.9649611  46.3521170  75.0189682  48.3568705  47.9768755  74.3703266
  47.7204516  47.2262671  73.6213547  48.9046289  49.1021991  73.9446454
  49.4199774  49.6818061  74.5916160  48.7791098  49.5539840  72.5530875
  48.7193704  48.7253906  71.8474222  47.4885956  50.3838570  72.4470260
  46.6848940  49.7926487  72.8859299  47.5694506  51.7429649  73.1559584
  48.3726839  52.3349582  72.7172561  46.6234190  52.2714729  73.0384734
  47.7697468  51.5889207  74.2162661  47.1642427  50.6122786  71.0788572
  46.3580635  51.1305386  71.0233419  49.9877847  50.3787925  72.1988702
  50.8543098  50.6642554  73.0313208  50.0402462  50.7728339  70.9171420
  49.4012795  50.3758050  70.2432066  51.0467249  51.6881956  70.4464524
  51.2210904  52.4618708  71.1941973  52.3618997  50.9515805  70.1896423
  53.0965963  51.7312417  69.9885238  52.6058061  50.4570511  71.1298818
  52.3825630  49.9431762  69.0727650  53.2245846  49.2790199  69.2676924
  51.4521198  49.3798608  69.1438524  52.5407763  50.6390520  67.3749760
  54.1141076  51.4398264  67.5082349  54.8778820  50.7024922  67.7553907
  54.3621164  51.9149261  66.5590918  54.0723625  52.1957807  68.2923852
  50.5399522  52.4092496  69.2082890  49.6209803  51.9499149  68.5371205
  51.1448654  53.5626433  68.9667149  51.8523043  53.8823508  69.6127927
  50.8537383  54.3916918  67.7821911  50.3657452  53.7869779  67.0178070
  49.9271952  55.5462195  68.1560799  48.9715098  55.1133502  68.4516957
  50.4093132  55.9901894  69.0270294  49.6958879  56.6085510  67.1150854
  49.3946948  56.2999545  65.7890251  49.3704929  55.2537864  65.4839905
  49.1292960  57.2952448  64.8668002  48.9379858  57.0336922  63.8260829
  49.1251293  58.6163254  65.2569063  48.8069678  59.6407279  64.3713907
  48.5990656  59.3232322  63.4895899  49.4171929  58.9451710  66.5336550
  49.4123565  59.9896310  66.8453928  49.7244358  57.9478703  67.4508765
  49.9988065  58.2123580  68.4720852  52.1500764  54.9630350  67.2744242
  52.9561821  55.4775226  68.0427953  52.3603676  54.8872616  65.9724526
  51.7409455  54.3692533  65.3657543  53.5315825  55.5447337  65.3753829
  53.8246742  56.4006915  65.9832749  54.7095244  54.5729783  65.2997169
  54.7814269  54.0797400  66.2690699  54.4683824  53.8353511  64.5343043
  56.0521048  55.2387836  64.9636462  55.9636558  55.6854780  63.9733222
  56.2441407  56.0206090  65.6984749  57.2135886  54.2892463  64.9592648
  57.0749609  53.1116230  65.2927731  58.3730383  54.7995385  64.5887578
  59.1948083  54.2128560  64.5642804  58.4331583  55.7743539  64.3314218
  53.2439686  56.0626785  63.9774883  52.8156865  55.3220160  63.1076564
  53.5066144  57.3582114  63.7983524  53.5535527  57.9793645  64.5933775
  53.7384069  57.9209985  62.4588029  53.0516205  57.4737277  61.7402123
  53.5057813  59.4254443  62.4827004  54.0459995  59.9108045  63.2955282
  53.8497348  59.8252988  61.5288071  52.0464597  59.7279857  62.6301728
  51.2513179  59.3542516  61.7622313  51.6610631  60.3513340  63.7454846
  50.6857938  60.5740161  63.8846333  52.3464249  60.5975535  64.4453103
  55.1962368  57.5748248  62.1656871  56.0886383  58.0629774  62.8512966
  55.4356512  56.6768668  61.2117807  54.6726114  56.3158547  60.6572179
  56.7199144  56.0504592  61.0906754  57.0102943  55.6357506  62.0559709
  56.6994853  54.9261181  60.0644572  56.3803843  55.3453281  59.1102367
  57.7132809  54.5372560  59.9690386  55.7582205  53.7966885  60.4626272
  54.7505556  54.2119264  60.4456016  55.8483076  53.0313125  59.6917927
  56.0686661  53.0441363  62.0933674  57.5967375  52.1983639  61.7561911
  58.3530594  52.9213820  61.4507063  57.9319133  51.6804595  62.6548194
  57.4429473  51.4742362  60.9561356  57.9210982  56.9712397  60.8850793
  59.0138026  56.5486687  61.2873475  57.8108705  58.2014852  60.3914964
  56.6929802  58.7714619  59.6210337  55.9894204  59.2592647  60.2956836
  56.1808851  57.9810288  59.0723325  57.3867030  59.7425582  58.7112355
  56.7022259  60.5269226  58.3881833  57.7917922  59.2320212  57.8375329
  58.5033717  60.3025860  59.5790734  58.1274715  61.0786983  60.2457426
  59.3287384  60.7001239  58.9884526  58.9789800  59.0986373  60.3976662
  59.7981371  58.5576970  59.9238904  59.4124892  59.5628019  61.7872640
  60.4674109  60.2042871  61.8793230  58.6137441  59.3356643  62.8065558
  57.8128340  58.7443056  62.6364461  58.7867971  59.9027184  64.1475089
  59.7496498  60.4067873  64.2307454  57.6841459  60.9184563  64.3938701
  56.7560742  60.3547089  64.2991542  57.7794691  61.2917149  65.4135227
  57.6659001  62.0999202  63.4172048  57.7239993  61.7036219  62.4034627
  56.4272695  62.9288356  63.5583662  56.3687106  63.3258860  64.5717865
  56.4585141  63.7538556  62.8467016  55.5514699  62.3111450  63.3595352
  58.8658027  62.9581206  63.6249706  59.7676478  62.3697754  63.4557819
  58.8411129  63.7936268  62.9253842  58.8678081  63.3397565  64.6459745
  58.7456623  58.7907429  65.1804531  58.3099045  57.6762268  64.9067709
  59.1686350  59.0677204  66.4292283  59.8697528  60.2822200  66.9029238
  59.1471189  61.0169440  67.2580028  60.4583794  60.7140740  66.0935290
  60.7271092  59.7382727  68.0059381  60.9511591  60.5257774  68.7254776
  61.6576826  59.3469941  67.5947987  59.9100316  58.6364021  68.6321739
  59.1671417  59.0358516  69.3225751  60.5242711  57.8980055  69.1475184
  59.2073642  57.9857183  67.4261121  59.8005950  57.1756464  67.0018963
  57.8346164  57.4581255  67.8149107  56.8460813  58.1592865  67.7781591
  57.7822857  56.2089447  68.2073540  58.8973260  55.2466139  68.2685952
  59.7329952  55.6854681  68.8137229  59.2177136  54.9895170  67.2589655
  58.2730118  54.0523515  69.0071032  58.3975181  54.1561479  70.0849824
  58.7240352  53.1161115  68.6782661  56.8377595  54.1166048  68.6169760
  56.2292185  53.6086098  69.3651190  56.6310733  53.6943796  67.6335604
  56.5221572  55.6135516  68.6190873  55.7670557  55.8977296  67.8861733
  56.0758391  56.0576984  70.0044276  56.8692234  56.4826906  70.8338786
  54.7749825  55.8847317  70.2443872  54.1831383  55.6321381  69.4659168
  54.1579376  56.0343750  71.5677993  54.8543260  56.3964265  72.3241465
  53.0004372  56.9916685  71.4824591  52.2898743  56.6377429  70.7355072
  52.5068312  57.0531233  72.4523440  53.3648078  57.9786809  71.1976087
  53.6689399  54.6694973  72.0099430  52.9270687  54.0335006  71.2871620
  54.0193636  54.2786670  73.2308917  54.6221573  54.8963030  73.7555486
  53.6504994  52.9929123  73.8304917  53.0653446  52.4237287  73.1081877
  54.8854886  52.1529318  74.2385363  55.6052739  52.8225009  74.7093715
  54.5666960  51.3989264  74.9582218  55.5260637  51.4794025  73.0589844
  56.5593098  52.0715092  72.3668254  56.9265221  53.0416954  72.7014794
  57.1298842  51.4581980  71.2659860  57.9256221  51.9597591  70.7152234
  56.6659334  50.2371634  70.8424908  57.1975067  49.5494646  69.7527599
  57.9208167  50.0181759  69.3299929  55.6539430  49.6135688  71.5275996
  55.2955476  48.6337615  71.2119559  55.0810716  50.2439155  72.6387595
  54.2720935  49.7578685  73.1841153  52.7398747  53.2135033  75.0405402
  53.0756070  54.0160676  75.9361346  51.6145926  52.5081755  75.0332606
  51.4209727  51.8963381  74.2533467  50.6398679  52.5807331  76.1120752
  50.1588698  51.6109487  76.2395833  51.1375933  52.8636127  77.0396247
  49.5795281  53.6194356  75.7828859  49.8883209  54.6315571  75.1182220
  48.3573303  53.4151802  76.2939245  48.1812244  52.6157291  76.8855020
  47.2489090  54.2253466  75.9034779  47.1877153  54.2691473  74.8160792
  45.9379368  53.6373564  76.4454461  45.9823637  52.5706338  76.2258365
  45.9734865  53.7874242  77.5244808  44.7118734  54.1831808  75.9256450
  44.6014076  55.2293566  76.2109770  44.6791885  54.0979585  74.8394724
  43.5722826  53.3659036  76.5352143  43.7820001  52.3291346  76.2721032
  43.6654005  53.4924505  77.6138312  42.2154236  53.6762990  76.1481788
  41.8216454  53.1226549  75.4008393  41.4506559  54.5935140  76.7276120
  41.9522995  55.4158238  77.6369383  42.9266219  55.3460821  77.8937104
  41.3581468  56.1087499  78.0692989  40.1894717  54.7130474  76.3563894
  39.8183167  54.1082771  75.6376426  39.6015463  55.4087187  76.7928339
  47.4136256  55.6956218  76.2701662  47.0517368  56.5764165  75.4835785
  47.9694006  56.0053478  77.4356283  48.1569108  55.2779446  78.1107757
  48.1636015  57.3797457  77.8375902  47.2324775  57.9301192  77.7026968
  48.5751513  57.4775706  79.2818696  49.3806953  56.7595179  79.4354871
  48.9482417  58.4856020  79.4629122  47.4421589  57.1784418  80.2428942
  46.2590096  57.0663926  79.8706422  47.6996464  57.0550076  81.4321870
  49.1176037  58.1237083  76.8821743  48.8406614  59.2592992  76.4777868
  50.2329214  57.5009097  76.5275023  50.4686388  56.6063408  76.9328207
  51.1906082  58.1206643  75.6060391  51.4606794  59.0955746  76.0118847
  52.4405297  57.2869261  75.4832966  52.1875647  56.3107070  75.0696482
  53.1488290  57.7880483  74.8235323  52.8902515  57.1583200  76.4678320
  50.5715933  58.3544667  74.2437326  50.8249875  59.3800546  73.5940236
  49.7463872  57.4159573  73.7945834  49.6463212  56.5461797  74.2981438
  49.0448726  57.5637985  72.5199551  49.7089144  57.8381693  71.7002793
  48.2871373  56.2966391  72.1307546  47.6901113  55.9708612  72.9825338
  47.3884286  56.5456843  70.9570880  47.9848319  56.8710747  70.1047236
  46.8610182  55.6267347  70.7012162  46.6650356  57.3205899  71.2107126
  49.2250455  55.1484534  71.8697533  49.8042538  54.9400650  72.7693055
  48.6500023  54.2640270  71.5954998  49.9009682  55.4087117  71.0552013
  48.1159997  58.7882846  72.5820277  48.1203224  59.6136852  71.7017294
  47.3187170  58.8754369  73.6635510  47.2870181  58.1417466  74.3569435
  46.4188553  59.9965053  73.8107362  45.7556572  60.0492507  72.9473212
  45.5598213  59.8482206  75.0840072  45.1707068  58.8315826  75.1400098
  46.1761417  60.0495874  75.9601925  44.3925484  60.8399146  75.0422227
  44.8265057  61.8398056  75.0422314  43.8736097  60.6696339  74.0989273
  43.4094107  60.7163518  76.1886391  43.6153002  59.8455724  77.0600143
  42.4361246  61.5125682  76.1924576  47.1584926  61.3432112  73.8231479
  46.7233086  62.2948565  73.1877786  48.2632874  61.3995449  74.5474302
  48.5400564  60.5962442  75.0935128  49.0674852  62.6287699  74.6565072
  48.4228215  63.4602731  74.9413059  50.1562234  62.4803772  75.7005133
  50.7144730  61.5703096  75.4808922  50.8203041  63.3411729  75.6222338
  49.5941945  62.4015519  77.1089451  49.2809993  63.3825040  77.4663563
  48.7316060  61.7361666  77.0728120  50.5979545  61.8353720  78.0762145
  51.7951646  61.7503069  77.7698471  50.1341028  61.4971237  79.2603296
  50.7597207  61.1112179  79.9529914  49.1546276  61.6249920  79.4709937
  49.6574419  63.0180049  73.3149472  49.7322550  64.1937736  72.9753358
  50.0279540  62.0172783  72.5277802  50.0083232  61.0677008  72.8713157
  50.5408770  62.2571998  71.1707840  51.3286871  63.0100369  71.1970657
  51.1091389  60.9780951  70.5651514  50.3362306  60.2101260  70.5957533
  51.5598983  61.1900180  69.1188369  52.3331858  61.9575746  69.0874852
  51.9588158  60.2566634  68.7215801  50.7093459  61.5070426  68.5153829
  52.2156376  60.5581146  71.3419674  52.5812548  59.7526806  70.9688715
  49.4632145  62.8335018  70.2617294  49.6653686  63.8363962  69.6051310
  48.2889464  62.2167442  70.2904593  48.1651935  61.3521772  70.7977153
  47.1888066  62.7137994  69.5146703  47.4835202  62.8031240  68.4690776
  46.0161233  61.7737613  69.6054019  45.9460102  61.5896424  70.6774484
  45.1072552  62.2678047  69.2619200  46.1824998  60.4380752  68.8669057
  47.1457192  60.0059807  69.1382056  45.0567762  59.4566373  69.2402888
  44.0932122  59.8878707  68.9688464  45.1987459  58.5187771  68.7032938
  45.0801701  59.2673713  70.3134763  46.2776017  60.6143555  67.3385465
  47.1373094  61.2394502  67.0971782  46.3942730  59.6389033  66.8663368
  45.3685686  61.0895451  66.9698290  46.8121025  64.1428168  69.9444569
  46.5166899  65.0011808  69.1112453  46.7632210  64.4014415  71.2429198
  46.9217781  63.6866003  71.9385929  46.4027516  65.7465151  71.6987044
  45.4257383  66.0103765  71.2938324  46.3300595  65.7985421  73.2132215
  47.3035857  65.5455038  73.6331242  46.0483735  66.8028351  73.5296846
  45.5859203  65.0847192  73.5665101  47.4084346  66.7754244  71.1641454
  46.9935724  67.8896011  70.7953180  48.6892263  66.4435241  71.1754877
  48.9938857  65.5770838  71.5956819  49.6909045  67.3116982  70.5864753
  49.6296229  68.2764304  71.0900978  50.6673103  66.8653869  70.7749884
  49.5244115  67.5230055  69.0919723  49.5814379  68.6591604  68.5715560
  49.3223659  66.4348821  68.3894603  49.3758374  65.5341564  68.8432591
  49.0853297  66.4710038  66.9669825  49.9804136  66.8231643  66.4542381
  48.7314749  65.0548832  66.4325713  49.7161545  64.5883621  66.4619534
  48.0639957  64.5371232  67.1214081  48.1617121  64.9652054  64.9981553
  47.3000202  65.6245110  64.8937334  49.2061865  65.3803837  64.0696590
  50.0680905  64.7212143  64.1731771  48.8282081  65.3257801  63.0487518
  49.5042869  66.4050121  64.2918596  47.5571978  63.6040425  64.6809801
  46.7414859  63.3977971  65.3739277  47.1747606  63.6046852  63.6602732
  48.3220171  62.8339321  64.7813816  47.9907546  67.4408937  66.5709967
  48.1463218  68.2630655  65.6781420  46.8630241  67.3383547  67.2743883
  46.7677877  66.5978831  67.9546318  45.7051364  68.1572398  66.9847934
  45.6265532  68.3064473  65.9079179  44.4214511  67.4948388  67.4806696
  44.4881277  67.2712787  68.5454111  43.5711225  68.1525746  67.3006004
  44.1156411  66.1971593  66.7872224  43.8299784  65.0848349  67.5268954
  43.8485595  65.1432339  68.6151712  43.5095116  63.8550478  66.8854558
  43.2603347  62.9739698  67.4768212  43.5153164  63.7836932  65.5384306
  43.2843854  62.8388078  65.0465341  43.8107320  64.8957918  64.7864762
  43.8141382  64.8315055  63.6983789  44.1029729  66.0935025  65.4082080
  44.3285708  66.9768574  64.8108055  45.8409711  69.5880816  67.4819418
  44.9786456  70.4102648  67.1985208  46.9191370  69.8990476  68.2009958
  47.5067097  69.1702827  68.5801521  47.2344454  71.2822340  68.5313984
  46.3040470  71.8052848  68.7524770  48.1181729  71.3174041  69.7697735
  49.0543568  70.8086085  69.5400194  48.4123143  72.7502862  70.2085795
  47.4765740  73.2596111  70.4389658  49.0457680  72.7364285  71.0955088
  48.9248397  73.2789840  69.4049024  47.4183191  70.6813921  70.8514205
  47.9658196  70.6969300  71.6398380  47.8873727  71.9778220  67.3383530
  47.8111267  73.2013300  67.1916331  48.5648602  71.1920546  66.5074070
  48.6734977  70.2026103  66.6785716  49.3002762  71.7904655  65.3809215
  49.2623801  72.8761401  65.4702179  50.7896482  71.3482604  65.3254274
  51.2714816  71.8372063  64.4787470  51.4902092  71.7179756  66.5704025
  51.0091964  71.2290066  67.4175371  52.5309141  71.3994450  66.5106363
  51.4487393  72.7989658  66.7039768  50.9731701  69.9404330  65.1490448
  50.5102922  69.6276040  64.2131045  52.0388340  69.7131760  65.1205081
  50.5104027  69.4063818  65.9789463  48.6380269  71.5645778  64.0336095
  48.8957212  72.3377810  63.1123449  47.8229902  70.5007381  63.8981463
  47.6228837  69.8293213  64.6256463  47.3109985  70.2278294  62.5232360
  47.2865609  71.1661911  61.9691790  48.2431380  69.1490545  61.6924323
  48.7159723  68.6071008  62.5114641  47.4786621  68.5208441  61.2352361
  49.5505597  69.5986842  60.3944895  49.2105375  68.9946887  59.5532551
  49.3002400  70.6442679  60.2150546  51.3434333  69.4362712  60.5563018
  51.2257617  67.7846611  61.4226040  50.7238895  67.0678411  60.7726868
  52.2275653  67.4237781  61.6555283  50.6570951  67.8976356  62.3456188
  45.7910035  69.8060933  62.7333096  45.3809382  69.3030869  63.7758910
  45.0364763  70.0254685  61.6745229  45.4086271  70.5840824  60.9198351
  43.6885042  69.4790560  61.5325881  43.3596012  69.0363101  62.4727466
  42.7320409  70.5849177  61.1597491  42.6829896  71.2976770  61.9829546
  43.1072535  71.0862956  60.2675968  41.4189391  70.0636374  60.8992123
  40.8294076  70.7840678  60.6646224  43.6975858  68.4369936  60.4243130
  44.2655895  68.6747454  59.3545561  43.0378054  67.3231938  60.6544021
  42.7018333  67.1318841  61.5874737  42.7554714  66.3528637  59.6068430
  43.5201864  66.4183791  58.8328805  42.6906804  64.9248771  60.1372074
  41.9433870  64.8650978  60.9284592  42.3083769  63.9745098  59.0030540
  43.0555017  64.0333937  58.2115758  42.2623734  62.9540464  59.3833681
  41.3342029  64.2573065  58.6041677  44.0334277  64.5164513  60.7486084
  44.7558571  64.4757139  59.9334171  44.3184185  65.3033258  61.4469696
  44.0113656  63.1784445  61.4738546  43.7268886  62.3909547  60.7759774
  45.0019357  62.9662696  61.8761629  43.2894478  63.2185660  62.2895290
  41.3782780  66.7662267  59.0475485  40.3431576  66.6295202  59.6969498
  41.3978864  67.3292380  57.8608776  42.2604607  67.3881357  57.3387704
  40.1932055  67.8908462  57.2685254  39.5149150  68.2347658  58.0493842
  40.5566141  69.0648994  56.3943639  41.4236894  68.7491479  55.8142082
  39.7215556  69.2603255  55.7216187  40.8992037  70.3463194  57.1708947
  40.5462815  70.4854039  58.3738254  41.5087735  71.2698853  56.5985192
  39.4489059  66.8884691  56.4280092  38.2665340  67.1096087  56.1810154
  40.0821923  65.8046509  55.9751346  41.0646488  65.6751643  56.1703571
  39.4014561  64.8016800  55.1799765  38.4486276  64.5395846  55.6398930
  39.1389286  65.2838480  53.7528296  40.0846670  65.5414371  53.2760417
  38.6503590  64.4918364  53.1852755  38.4943553  66.1624666  53.7784019
  40.2549141  63.5566862  55.1433998  41.4894895  63.6147426  55.2483146
  39.6130115  62.4147111  54.9994841  38.6038887  62.4352443  54.9627566
  40.2802313  61.1401847  54.8338758  41.3271206  61.2696020  54.5593339
  40.2110575  60.3156257  56.0944524  39.1655510  60.1769655  56.3697503
  40.8639875  58.9565803  55.8812695  41.9097092  59.0944211  55.6063750
  40.8043293  58.3758498  56.8017550  40.3459631  58.4252662  55.0828600
  40.8650523  61.0088210  57.2916963  40.3599603  61.9552588  57.4846721
  40.7852823  60.3691777  58.1706690  41.9164246  61.1965015  57.0737672
  39.5724516  60.3481761  53.7661584  38.3171229  60.2625501  53.7789687
  40.2914888  59.7976903  52.7984271  41.2764911  60.0111065  52.7326752
  39.7089479  58.9165615  51.7993960  38.6920346  58.6785304  52.1113699
  39.6616479  59.5087999  50.4099666  39.1093471  60.4483312  50.4285162
  40.6750928  59.6906927  50.0522732  38.9550756  58.5168314  49.4670673
  39.6168543  57.6608174  49.3351965  38.0617022  58.2048224  50.0080233
  38.5628509  59.0565315  48.1241207  38.7440323  60.2708133  47.8811350
  38.0926897  58.2194570  47.2905497  40.5257361  57.6502501  51.7756990
  41.7525443  57.6991305  51.5735072  39.8623515  56.5141982  51.9833860
  38.8815344  56.5609146  52.2198492  40.4993550  55.2224920  51.9641123
  41.5744782  55.3830375  52.0443270  40.0503148  54.3322724  53.1237273
  38.9700299  54.2093182  53.0464808  40.7107537  52.9787425  53.1210253
  41.7910994  53.1008758  53.1987177  40.3496344  52.3959927  53.9684300
  40.4701949  52.4583613  52.1939679  40.3989289  54.9457863  54.3952846
  40.1119806  54.3777095  55.1139985  40.2348823  54.5494352  50.6275021
  39.0864061  54.2255463  50.3029649  41.2545208  54.4099155  49.8033143
  42.1547731  54.7715482  50.0841469  41.1397343  53.7891311  48.4971616
  40.2327041  54.1449779  48.0085223  42.3343031  54.1232969  47.6101219
  43.2372022  53.6557142  48.0028542  42.1401093  53.7496471  46.6047490
  42.6315102  55.5770589  47.4745755  43.9206952  56.0544349  47.7925701
  44.6813767  55.3436553  48.1154568  44.2230357  57.3850583  47.7010640
  45.2261988  57.7166187  47.9690792  43.2881666  58.2976389  47.2802867
  43.5383308  59.3545650  47.1884986  42.0209115  57.8618965  46.9726717
  41.2564341  58.5822179  46.6814475  41.7087522  56.4880872  47.0329917
  40.7227666  56.1392412  46.7260085  41.0275247  52.2786714  48.5777509
  40.2227737  51.6649733  47.8697654  41.8467418  51.6730633  49.4217510
  42.4309467  52.2567585  50.0032180  41.9578736  50.2395930  49.5596488
  41.0864619  49.7702746  49.1030515  43.2155106  49.6939920  48.8855965
  44.0433712  50.1681915  49.4127406  43.3311396  48.6109738  48.9280408
  43.3454643  50.0812715  47.4504074  44.5315413  50.5293183  46.9106802
  44.3601240  50.7287618  45.6048091  45.1823579  51.1152664  45.0026094
  43.1220029  50.3893562  45.2714953  42.7100799  50.4179563  44.3497571
  42.4735872  49.9820762  46.4120132  41.4344567  49.6568658  46.3615424
  42.0128493  49.8570240  51.0269615  42.6765415  50.5284428  51.8295819
  41.3107759  48.7905577  51.3979826  40.6459543  48.3940936  50.7491932
  41.3912818  48.2233826  52.7368632  42.3476756  48.4654936  53.2003202
  40.2302038  48.6868413  53.6690530  40.2367420  49.7764105  53.6989982
  38.8530612  48.1948664  53.1821405  38.8456011  47.1052981  53.1523734
  38.0792874  48.5444510  53.8656355  38.6590084  48.5864336  52.1835826
  40.4612482  48.2433122  55.1011852  40.3339683  47.1608579  55.1150865
  41.4959119  48.4900528  55.3392809  39.5537403  48.8653163  56.1168530
  38.5188589  48.6186114  55.8796673  39.7999947  48.4829677  57.1074425
  39.6808010  49.9478072  56.1038600  41.4393203  46.7225957  52.5764110
  40.7545253  46.1397562  51.7124116  42.2610521  46.0677564  53.3536955
  42.8712415  46.6025174  53.9551928  42.3453666  44.6171738  53.4005054
  41.3591201  44.1875364  53.2249244  43.0358714  44.2659191  52.6337444
  42.8397453  44.1710233  54.7435469  43.1725594  44.9726023  55.6211271
  42.8683193  42.8678214  54.9453147  42.5894728  42.2151581  54.2267226
  43.2547127  42.3371238  56.2514652  44.1471409  42.8583912  56.5978052
  42.1564370  42.5162726  57.2846787  42.5203373  42.1515017  58.2452087
  41.9242779  43.5782870  57.3642255  40.9914352  41.8061150  56.9227725
  40.3158860  41.9372031  57.5921372  43.6192925  40.8835314  56.1646627
  43.1315820  40.1635257  55.2887842  44.4148317  40.4473352  57.1179193
  44.8107221  41.1359844  57.7417240  44.6914084  39.0225778  57.3828055
  43.7636087  38.4615212  57.2709911  45.7605500  38.4197426  56.4116813
  46.6466192  39.0511978  56.4768345  45.9993687  37.4207173  56.7763923
  45.3411757  38.3415503  55.0799512  46.0434438  37.9644759  54.5449426
  45.2969735  38.8749712  58.7383018  46.1224404  39.7123213  59.1535286
  44.9953838  37.7469525  59.3746645  44.2734897  37.1334260  59.0245883
  45.6877044  37.3717129  60.6201987  45.1625202  36.5349229  61.0807019
  47.1343785  36.9599984  60.3684465  47.7544691  37.8470647  60.4976767
  47.4278419  36.2030783  61.0958056  47.3615437  36.4119078  58.9860466
  46.8565144  35.3738675  58.6287528  48.1588277  37.1122387  58.2005151
  48.3469460  36.7911825  57.2615613  48.5769240  37.9657930  58.5421895
  45.7608571  38.4427583  61.7082375  46.7723602  38.5278466  62.4130307
  44.7218913  39.2426548  61.8931930  43.9439504  39.1678176  61.2534221
  44.6413139  40.2140885  62.9579600  43.5924171  40.2891581  63.2448036
  45.2190573  39.8213811  63.7946755  45.1603933  41.6048191  62.6055087
  45.1243280  42.4681359  63.4512064  45.5982106  41.7694651  61.3365734
  45.6036101  41.0092597  60.6716239  46.0737373  43.0865533  60.8925091
  46.0440510  43.7989245  61.7169757  47.5150379  42.9643778  60.4051317
  47.4908509  42.2326326  59.5976274  47.8531572  43.9243111  60.0148712
  48.4706980  42.4931081  61.4860252  48.0628938  41.5967967  61.9533820
  49.8325433  42.1790960  60.8925036  50.2412167  43.0751100  60.4253379
  50.5047029  41.8427406  61.6819130  49.7307256  41.3936976  60.1435825
  48.5812138  43.5343251  62.5491589  47.5993722  43.7119527  62.9879469
  49.2681170  43.1923859  63.3233314  48.9569957  44.4603019  62.1138957
  45.2045858  43.5927009  59.7480091  44.8383083  42.8429059  58.8183940
  44.8894740  44.8783853  59.7967353  45.1964920  45.3884661  60.6126133
  44.1430821  45.5853499  58.7919516  43.8016799  44.9366905  57.9852394
  42.9095298  46.2887404  59.4185548  43.2519255  46.9462862  60.2176154
  42.1625418  47.0967662  58.3889664  41.8194092  46.4397823  57.5897586
  41.3037282  47.5778441  58.8570515  42.8234190  47.8579559  57.9743180
  41.9726242  45.3216924  60.0901352  42.5002110  44.7980725  60.8873657
  41.1276539  45.8665660  60.5111310  41.6103330  44.5988917  59.3591050
  45.0685830  46.6286947  58.1466341  45.8037601  47.2847559  58.8461426
  44.9894364  46.7755785  56.8312991  44.3288234  46.1909199  56.3395024
  45.8139240  47.7027056  56.0494395  46.4620807  48.2747086  56.7133707
  46.6913091  46.9242808  55.0577544  46.0253046  46.4927661  54.3105381
  47.3514317  47.6484880  54.5804053  47.5143524  45.8335159  55.6845859
  47.0419201  44.5396302  55.7946426  46.0507836  44.3400091  55.3873353
  47.7644845  43.5196144  56.3873629  47.3264664  42.5290197  56.5096913
  49.0279569  43.7855097  56.8906783  49.8120722  42.8143237  57.4444996
  49.3950526  41.9496311  57.4434867  49.5413838  45.0624689  56.7669126
  50.5468908  45.2645216  57.1360073  48.7941614  46.0859409  56.1804403
  49.2096942  47.0909707  56.1073138  44.9088175  48.6642903  55.3158463
  43.9057415  48.2391929  54.7362000  45.2880938  49.9663177  55.3176362
  46.1336602  50.2171845  55.8097567  44.5369187  51.0313193  54.6330534
  43.7599995  50.5557375  54.0344570  43.8695292  52.0525497  55.5901509
  43.3545431  52.7974943  54.9835644  42.8818690  51.3981198  56.5303014
  43.3962501  50.6533265  57.1375860  42.4416591  52.1546955  57.1798455
  42.0949138  50.9140398  55.9519686  44.8456571  52.7034104  56.3993484
  44.4113757  53.3298619  56.9829222  45.4480924  51.8445886  53.7249166
  46.4324905  52.4286673  54.2347768  45.1289951  51.9433880  52.4435893
  44.3951417  51.3577127  52.0713757  45.8287957  52.8423257  51.5288706
  46.7761439  53.1465642  51.9739206  46.1138412  52.1612557  50.1934955
  46.5085238  51.1655210  50.3955780  45.1747325  52.0752473  49.6468901
  47.1163727  52.9439689  49.3585508  46.5777746  53.8336306  49.0321845
  47.9321748  53.2359329  50.0198549  47.6794958  52.2228796  48.1499601
  47.0689550  51.2335535  47.6897429  48.7758815  52.6514480  47.6790083
  44.9478295  54.0615796  51.3549272  43.7994542  53.9055775  50.8926257
  45.4485231  55.2227398  51.7552058  46.3955097  55.2711081  52.1030223
  44.6054934  56.3885844  51.8980071  43.8385321  56.3774384  51.1235749
  43.9320245  56.4147979  53.2400311  43.1277158  57.1427384  53.1337791
  43.5062922  55.4182709  53.3574447  44.6718013  56.7180568  54.3260230
  45.6154070  56.1739653  54.2851139  44.8711858  57.7895630  54.3409283
  43.8469977  56.2906769  55.6991099  42.7874543  56.5445507  55.6672556
  43.9604529  55.2399117  55.9657927  44.4731094  57.0810151  56.6928844
  44.2110784  58.0564052  56.6855938  45.4031898  56.6816561  57.5509427
  45.7572850  55.4022399  57.6950117  45.3089483  54.6912309  57.1350472
  46.4718299  55.1513795  58.3632888  45.9336917  57.5924773  58.3526636
  45.6253032  58.5525241  58.2951586  46.6442276  57.3228792  59.0179111
  45.2894286  57.6672481  51.5574535  46.5152176  57.7157596  51.3512836
  44.4967799  58.7285694  51.5052404  43.5007211  58.5907838  51.4104705
  45.0060757  60.0963781  51.5402679  46.0685252  60.1194566  51.7826886
  44.7886831  60.8417615  50.2141484  43.7787957  60.6264164  49.8650737
  44.9596038  62.3227876  50.3645800  45.9694709  62.5389567  50.7132064
  44.7965424  62.8075039  49.4019993  44.2373074  62.7007791  51.0881213
  45.7041112  60.3381303  49.1372096  45.5183195  59.2774342  48.9683685
  45.5197617  60.8899815  48.2154856  46.7401976  60.4805976  49.4443396
  44.2863070  60.8136698  52.6882886  43.0663183  60.7139292  52.8200479
  45.0870458  61.5027630  53.5087085  46.0915374  61.4532618  53.4157260
  44.5357691  62.3572708  54.5337205  43.4566891  62.2072914  54.5682402
  45.1082504  62.0737352  55.9077844  46.1921599  62.1639677  55.8363871
  44.7220257  62.8516243  56.5664339  44.7521709  60.7172661  56.4684356
  44.1427828  59.8835296  55.7858570  45.0962099  60.4221671  57.6534853
  44.8845045  63.7871713  54.1707506  46.0279152  64.1015209  53.8403715
  43.8881457  64.6810056  54.2046090  42.9418358  64.3808032  54.3902845
  44.1308472  66.1106545  53.9610826  44.9861412  66.2538695  53.3007337
  42.9057881  66.7826797  53.3290214  42.0455371  66.6618009  53.9873950
  43.1838607  68.2593488  53.1273757  44.0437590  68.3810390  52.4686895
  42.3124256  68.7356682  52.6781306  43.3956055  68.7245077  54.0901285
  42.5575494  66.1292312  52.0102933  42.3348376  65.0748988  52.1742589
  41.6857243  66.6214604  51.5793281  43.4007507  66.2197106  51.3255116
  44.4519339  66.7634459  55.3132223  43.6258382  66.7519354  56.2074105
  45.6727577  67.2838829  55.4099512  46.2818320  67.3244339  54.6052876
  46.1351047  67.8756142  56.6548939  45.4466132  67.6630172  57.4727454
  47.4973923  67.2520134  56.9861272  48.2193918  67.5705600  56.2342336
  47.8150853  67.6056852  57.9669878  47.4149119  65.7417099  56.9974984
  47.0799695  65.3931116  56.0205677  48.7527462  65.1603941  57.2999044
  49.0881687  65.5081949  58.2769536  48.6838414  64.0725910  57.3060255
  49.4665092  65.4744460  56.5383178  46.4382437  65.3324738  58.0465808
  45.4606465  65.7576121  57.8192909  46.3643622  64.2452468  58.0706682
  46.7745247  65.6948866  59.0180081  46.3587688  69.3591772  56.4967130
  46.9363706  69.8127681  55.4992499  45.9188389  70.1149267  57.4824986
  45.4104760  69.6880839  58.2437290  46.0747001  71.5826101  57.4811667
  46.6463906  71.8976923  56.6082450  44.7104779  72.2472771  57.4334414
  44.2372899  71.9373144  56.5017143  44.1381399  71.8612802  58.2769671
  44.7508017  73.7936244  57.5019242  44.9778837  74.0802842  58.5287450
  45.5476868  74.1400451  56.8438445  43.4119345  74.4361872  57.0719339
  43.3875314  75.4929672  57.3378652  43.2590316  74.3286644  55.9980815
  42.3399454  73.7615045  57.7610635  41.8917012  73.0214980  57.2399427
  41.9128116  74.0176699  58.9970352  42.3468992  75.0857680  59.6819260
  43.0131116  75.7162851  59.2591858  42.0056463  75.2548273  60.6173751
  41.0392979  73.2119157  59.5451620  40.7017056  72.4118134  59.0294414
  40.7068291  73.3939360  60.4813414  46.8768491  71.9971286  58.7055132
  46.5220424  71.6491324  59.8213702  47.9585123  72.7182772  58.4683585
  48.1882009  72.9628229  57.5157097  48.8589012  73.1640640  59.5371891
  48.9348255  72.4231583  60.3330493  50.2412565  73.4361111  58.9984402
  50.1827241  74.1829928  58.2067068  50.8780649  73.8075916  59.8012960
  50.6633416  72.5146204  58.5974435  48.2689898  74.4252142  60.1452571
  48.1710375  75.4646694  59.4764333  47.8658180  74.3428223  61.4034701
  47.8570825  73.4545088  61.8840138  47.2287496  75.4820251  62.0474971
  46.4233089  75.8506878  61.4123182  46.6366361  75.0979218  63.4233210
  47.5110857  74.8135622  64.0086216  46.1618292  75.9667648  63.8791394
  45.6525977  73.9429480  63.3908869  46.1339158  73.0607351  62.9688277
  45.2041865  73.6459764  64.7886813  44.7223245  74.5276377  65.2112700
  44.4965353  72.8170287  64.7754070  46.0668898  73.3768246  65.3981079
  44.4667397  74.1951307  62.4802839  44.8183528  74.3567518  61.4612911
  43.8013727  73.3320428  62.5018988  43.9268005  75.0781431  62.8221226
  48.0925737  76.7400590  62.1024285  47.5369925  77.8425199  61.8921535
  49.4137309  76.6332157  62.3193553  50.1955443  75.4425988  62.6922602
  50.4409886  74.8882068  61.7864419  49.5887342  74.8172843  63.3471360
  51.4319344  75.9925957  63.3953676  52.2873365  75.3399170  63.2210203
  51.2512362  76.0754053  64.4670915  51.6347928  77.3054890  62.7995819
  52.2717259  77.2157372  61.9196047  52.0984399  77.9843212  63.5153457
  50.2427860  77.8417938  62.3887861  49.8190826  78.4808370  63.1635103
  50.3165163  78.6125409  61.0820085  50.5668654  79.8201548  61.0815932
  50.1726213  77.9338178  59.9518297  49.9420286  76.9505962  59.9660284
  50.3968398  78.5757575  58.6546418  50.7129433  79.6107235  58.7851149
  51.5005162  77.8154162  57.8813285  51.7345781  78.3788436  56.9780761
  52.7831721  77.6421311  58.7271370  52.5499790  77.0783553  59.6303964
  53.5319469  77.1034486  58.1463991  53.1731099  78.6222560  59.0017355
  50.9856276  76.5347019  57.5266930  51.6546152  76.0431810  57.0445487
  49.1565151  78.6715230  57.7626947  49.1794599  79.3971610  56.7604347
  48.1366942  77.9023699  58.0774450  48.1748655  77.3262386  58.9061277
  46.9479939  77.8536740  57.2663610  46.1588368  77.4018429  57.8673426
  46.6751586  78.8802639  57.0218747  47.1020604  77.0655290  55.9822641
  46.1957657  77.0589817  55.1620390  48.2357081  76.4115708  55.7698245
  48.9765705  76.4477345  56.4553275  48.4744138  75.6740375  54.5284788
  47.8439529  76.0663571  53.7305417  49.9480587  75.8250681  54.1102918
  50.5514621  75.4803388  54.9500330  50.1032912  75.1650347  53.2568523
  50.3639625  77.2527527  53.7343415  49.7253874  77.5771914  52.9127198
  50.1882005  77.8874395  54.6028934  51.7915151  77.3575271  53.3242086
  52.4130558  77.2836662  54.2165822  52.0194405  76.5289239  52.6537116
  52.0752574  78.6768885  52.6156002  51.3019373  78.8296088  51.8627701
  52.0243379  79.4758611  53.3552955  53.4187314  78.6904954  51.9594505
  53.4659710  77.9504947  51.2736902  53.5622024  79.5807574  51.5045333
  54.1354756  78.5494242  52.6569285  48.1059989  74.1957101  54.6875625
  48.2255694  73.6470093  55.7749085  47.6544015  73.6079774  53.5988679
  47.5777085  74.1363084  52.7414975  47.2215428  72.2178251  53.5940915
  47.3536852  71.7952809  54.5901306  45.7382782  72.0916356  53.1987329
  45.6162729  72.4976250  52.1945484  45.4735040  71.0342839  53.1972371
  44.8991686  72.7827669  54.0879053  43.9858389  72.6815172  53.8100974
  48.0447345  71.3694900  52.6461516  48.6614664  71.8803479  51.7054980
  47.9602876  70.0669662  52.8386022  47.4014126  69.7418386  53.6145211
  48.6431445  69.0729578  52.0115151  48.7428809  69.4255609  50.9849564
  50.0580943  68.8406622  52.5943691  50.5084107  69.8317133  52.6503343
  49.9708465  68.4245891  53.5980479  50.9356754  67.9317794  51.7426829
  51.3865705  68.3271489  50.5048062  51.0884210  69.3053291  50.1274868
  52.2018458  67.5116954  49.7428694  52.5672660  67.8691658  48.7801728
  52.5028848  66.2519269  50.1596379  53.3049803  65.4175798  49.3646205
  53.5869027  65.8357151  48.5477471  52.0719866  65.8178841  51.3776275
  52.3472665  64.8304231  51.7480898  51.2690227  66.6547603  52.1527741
  50.8854002  66.3067937  53.1118638  47.8577334  67.7967790  52.0012733
  47.3719204  67.3320645  53.0305498  47.8211419  67.1521436  50.8354155
  48.2478969  67.5961954  50.0349173  47.1981884  65.8573625  50.6515462
  46.4088814  65.7266129  51.3918152  46.5910639  65.7308566  49.2688293
  47.3383722  66.0889502  48.5607343  46.3480352  64.6920322  49.0454890
  45.3242967  66.5741349  49.1109472  45.0338828  67.4180525  49.9094807
  44.5515901  66.2843951  48.0798995  43.7021511  66.8087403  47.9262273
  44.8136537  65.5398032  47.4498150  48.2752619  64.7852737  50.8422930
  49.1355758  64.6098858  49.9875901  48.2446971  64.1323864  51.9986285
  47.4863068  64.3202088  52.6386803  49.2680208  63.1714333  52.4007277
  50.2172370  63.3844126  51.9090695  49.4639598  63.2882646  53.9133133
  49.6581747  64.3548643  54.0262063  48.5440235  63.0295085  54.4375866
  50.6250809  62.4953144  54.5033378  50.4216165  61.4368051  54.3412847
  51.9679619  62.8562102  53.8769721  52.1723474  63.9145402  54.0390305
  52.7559783  62.2599207  54.3369393  51.9366961  62.6524732  52.8066385
  50.6363931  62.6533970  56.0194288  49.6983628  62.2809356  56.4310973
  51.4672450  62.0856260  56.4382635  50.7516714  63.7068285  56.2745601
  48.8993531  61.7310903  52.0475672  47.8781433  61.2140952  52.5160068
  49.7209996  61.1163379  51.1975140  50.4888565  61.6332433  50.7934052
  49.5496804  59.7217987  50.8139304  48.4935622  59.5009177  50.6592528
  50.2970732  59.4517570  49.5185651  51.3509054  59.6801075  49.6779165
  50.1876639  58.3950477  49.2746487  49.7967710  60.2428894  48.4406675
  50.2917574  60.0453994  47.6421777  50.0884095  58.8106331  51.9192580
  51.2735862  58.9039140  52.2668393  49.2532110  57.9061311  52.4121776
  48.3601865  57.7741102  51.9592128  49.5705686  57.0797995  53.5575532
  50.6355936  57.0709910  53.7893791  48.7666982  57.5557320  54.8151122
  47.7084426  57.5780057  54.5549211  48.9753576  56.6376410  56.0028779
  50.0333887  56.6152122  56.2639674  48.3997367  57.0051866  56.8523904
  48.6432221  55.6313300  55.7476851  49.1060249  58.9846373  55.1713200
  50.0755047  58.9710301  55.6693406  49.1861121  59.5394267  54.2364968
  48.0898769  59.6520549  56.0668215  48.0095712  59.0980568  57.0020952
  48.4052977  60.6741367  56.2764829  47.1201775  59.6664512  55.5692519
  49.1959946  55.6351158  53.3038426  48.1195028  55.3439863  52.7459150
  50.0431675  54.7205674  53.7414877  50.9945247  54.9980086  53.9365397
  49.6891165  53.3189302  53.8935501  48.6468367  53.1757161  53.6085207
  50.5604806  52.4298935  53.0154730  50.4951112  52.9311255  52.0497647
  51.5899744  52.4622951  53.3721138  50.1176499  50.9679570  52.8638034
  50.1772864  50.5027839  53.8477538  48.7320390  50.8230027  52.3285282
  48.6717369  51.2875625  51.3443297  48.4825650  49.7651268  52.2462964
  48.0284136  51.3103041  53.0034720  51.1084742  50.1986271  52.0081214
  52.0915572  50.2236914  52.4782481  50.7790112  49.1641583  51.9110145
  51.1671012  50.6550050  51.0200015  49.8342658  53.0259298  55.3638935
  50.8755098  53.2965765  55.9518553  48.7560083  52.5244948  55.9905495
  47.9285699  52.3064026  55.4540044  48.7323295  52.2816865  57.4190500
  49.7297125  52.4576445  57.8219955  48.0272046  52.9725075  57.8812886
  48.3154852  50.8663622  57.7397976  47.6386928  50.1910431  56.9594969
  48.7548436  50.4240628  58.9173461  49.3992377  51.0176729  59.4198226
  48.4554385  49.1201087  59.4643894  47.6078897  48.6155911  59.0004689
  49.6548510  48.1919298  59.4216643  49.9027029  48.0171213  58.3747113
  50.8790222  48.7641504  60.1479622  50.6320640  48.9388011  61.1951536
  51.7046696  48.0554792  60.0832173  51.1713476  49.7053168  59.6822871
  49.3328827  46.7829387  59.9065535  48.5560602  46.3499055  59.2763702
  50.2297181  46.1657827  59.8526615  48.9823316  46.8242684  60.9378181
  47.9006092  49.2723435  60.8721727  48.3549945  50.1013261  61.6590036
  46.8985060  48.4310861  61.1594082  46.6338777  47.7606092  60.4519254
  46.1816513  48.4170344  62.4257857  46.7047492  49.0553301  63.1378576
  44.7416216  48.9261013  62.2766709  44.1988375  48.2431390  61.6231825
  44.2455138  48.9717903  63.2461499  44.6196498  50.2877908  61.6688316
  44.7911469  50.4654686  60.2899475  44.9643363  49.5867485  59.6686937
  44.7453699  51.7011986  59.7227846  44.9217295  51.8015568  58.6518382
  44.4889221  52.7805325  60.4593625  44.4346372  53.7444418  59.9533666
  44.2947277  52.7055843  61.8202061  44.0927611  53.5914752  62.4222917
  44.3642628  51.4173773  62.4424574  44.2174884  51.3232177  63.5184179
  46.1210733  46.9863784  62.9492854  45.7734156  46.0780085  62.2151218
  46.4526515  46.7972172  64.2026133  46.8090466  47.5857968  64.7234051
  46.3163775  45.5052617  64.8975460  46.1014055  44.7182324  64.1747245
  47.6179659  45.1511318  65.6373795  47.8322993  45.9368517  66.3618135
  47.4760115  44.2049953  66.1596579  48.7958681  45.0232803  64.6566847
  48.6952426  44.0500871  64.1761951  48.7135417  45.8089535  63.9056573
  50.1748386  45.1080845  65.3012982  50.5603467  46.1340844  65.8582485
  50.9298809  44.0561000  65.2079346  51.8525368  44.0624068  65.6187481
  50.5910678  43.2363364  64.7249287  45.1988346  45.6515129  65.8967665
  45.1804009  46.5877973  66.7083050  44.2425848  44.7403473  65.8232912
  44.2669535  44.0407290  65.0952529  43.1148616  44.7434023  66.7373459
  43.2359325  45.5474273  67.4632830  41.8084114  44.9563919  65.9899771
  41.9060502  44.2841929  65.1375017  40.9444907  44.6629440  66.5863238
  41.6193300  46.3886352  65.4900706  42.0480566  47.0720379  66.2230474
  42.3121623  46.6019836  64.1165962  41.8836129  45.9192019  63.3829386
  42.1596965  47.6300151  63.7879530  43.3801305  46.4066833  64.2135601
  40.1937892  46.8345957  65.4303238  39.7545926  46.7837840  66.4266289
  40.1485690  47.8608375  65.0657911  39.6372749  46.1848059  64.7549246
  43.0365278  43.4601684  67.5299969  43.3072837  42.3863941  67.0071814
  42.6927232  43.6308585  68.7952811  42.6287437  44.5681598  69.1660537
  42.4504929  42.4892216  69.7180945  42.4383793  41.5786988  69.1190113
  43.5754712  42.3685905  70.7814124  43.6547250  43.3285978  71.2915154
  43.3106609  41.2718843  71.8031266  43.2317405  40.3114459  71.2937847
  44.1313165  41.2362409  72.5196133  42.3790192  41.4814796  72.3286874
  44.8238769  42.0147265  70.1293991  45.5187689  41.9403780  70.7875768
  41.0784118  42.7572432  70.3328319  40.8655999  43.7797894  70.9626949
  40.1071149  41.8709728  70.0927318  40.2375312  41.1441757  69.4036332
  38.7631820  42.0347899  70.6953416  38.0556800  41.3575946  70.2168579
  38.8131209  41.7115695  72.1994153  39.5967423  42.3081649  72.6664384
  37.8517240  41.9592308  72.6493929  39.1063888  40.2345608  72.4118305
  38.1613713  39.7032754  72.2987876  39.7749380  39.9636133  71.5946839
  39.7486661  39.8519782  73.7422573  39.5347329  40.5689510  74.7393499
  40.4592054  38.7997987  73.8008326  38.1493856  43.4052711  70.3765858
  37.5275347  44.0684194  71.2124421  38.3734005  43.8516329  69.1430865
  38.9939301  43.3533100  68.5212210  37.7438286  45.0478644  68.6612780
  37.7094713  44.9737756  67.5743421  36.7281325  45.0543841  69.0567757
  38.4369646  46.3536900  69.0491141  37.8963592  47.3982192  68.7403269
  39.5619732  46.2657916  69.7413732  39.8886895  45.3590472  70.0433177
  40.3075809  47.4732670  70.1970323  39.8033878  48.3621080  69.8177563
  40.3858609  47.5682569  71.7053370  40.9086327  46.6774735  72.0536384
  40.9799960  48.4519346  71.9381833  38.9904664  47.6710912  72.4233149
  38.3090717  46.9375286  71.9923994  39.1170367  47.4679556  73.4867141
  38.4115776  49.0746818  72.2380927  39.1296722  49.8028677  72.6151660
  38.2438515  49.2474801  71.1750272  37.1259543  49.2201868  72.9727580
  36.4901318  48.3747415  72.7099796  37.3430731  49.1927733  74.0405628
  36.4358455  50.4685106  72.6476775  36.2341831  50.4939188  71.6583411
  35.5722704  50.5213332  73.1687800  37.0246707  51.2520525  72.8914931
  41.6809323  47.4975105  69.5498382  42.2960574  46.4567045  69.3339217
  42.1905702  48.7099712  69.3299602  41.6674012  49.5371654  69.5792458
  43.4743582  48.8804177  68.6408722  43.6333345  48.1250567  67.8712909
  43.5703596  50.3041082  68.0011028  43.4045827  51.0515680  68.7769393
  44.9150838  50.5161607  67.3848003  45.0814028  49.7693078  66.6084953
  44.9609002  51.5126152  66.9453916  45.6852065  50.4214520  68.1503331
  42.4602296  50.5331802  66.9860145  42.6565819  49.8382215  66.1695716
  41.5353800  50.2503136  67.4887462  42.3265664  51.9177823  66.4398787
  43.2509306  52.2011961  65.9365624  41.5014090  51.9502095  65.7284275
  42.1297309  52.6132889  67.2557379  44.6262655  48.6179489  69.5774665
  44.7690944  49.3208345  70.5970829  45.4778118  47.6306077  69.2454960
  45.2161811  47.0289695  68.4775897  46.7117355  47.3438439  69.9551915
  46.6343808  47.8414526  70.9218874  46.8874080  45.8745542  70.1859573
  47.7469389  45.7386022  70.8423290  45.6578351  45.2294301  70.8184510
  44.7979390  45.3645788  70.1623922  45.8396760  44.1645442  70.9635410
  45.4562612  45.6976520  71.7819015  47.0509117  45.2156280  68.9500520
  47.1632138  44.2743520  69.1016705  47.9313014  47.8709524  69.2444534
  49.0089823  47.9035020  69.7979020  47.7681680  48.3097752  67.9904278
  46.8862409  48.1943043  67.5119192  48.8614354  48.9681080  67.2787613
  49.3592765  49.6841894  67.9325815  49.5843094  48.2294117  66.9325240
  48.2948646  49.7060953  66.0777253  47.4111909  49.2159597  65.3807627
  48.8622126  50.8879524  65.8011555  49.5507321  51.2652176  66.4365383
  48.5144551  51.6688854  64.6084534  48.1073075  51.0149456  63.8372901
  47.4661403  52.7136988  64.9633832  46.5375357  52.1917972  65.1944921
  47.7756442  53.3029793  65.8265495  47.1461692  53.6985357  63.8587780
  47.3355307  53.5467520  62.5018485  47.7515094  52.6005539  62.1557693
  46.9361354  54.6833611  61.8532290  46.9874118  54.8173978  60.8534769
  46.4879462  55.6107016  62.7593571  46.0120446  56.9096531  62.5888765
  45.9424670  57.3159207  61.5798154  45.6571647  57.6012851  63.7217112
  45.2606079  58.6124593  63.6302272  45.7903118  57.0469429  64.9760328
  45.5434682  57.6277138  65.8647807  46.2300832  55.7680411  65.1488828
  46.2761316  55.3828128  66.1674992  46.6067209  55.0262055  64.0463003
  49.7788836  52.3274797  64.1153499  50.3889094  53.1100387  64.8558030
  50.2118507  51.9789257  62.9005287  49.7174032  51.2595611  62.3924583
  51.4193395  52.5469350  62.3002001  51.7552285  53.3948050  62.8971877
  52.5368768  51.5265039  62.2369819  52.1673428  50.6607049  61.6874949
  53.3674770  51.9747803  61.6917742  53.0155597  51.0848145  63.6228456
  53.4974708  51.9451932  64.0871849  52.1309337  50.8104987  64.1975539
  53.9822590  49.9180356  63.5965087  54.8540312  50.2074378  63.0096880
  54.2890321  49.7029737  64.6200995  53.4091248  48.7088061  63.0166369
  53.6827204  48.5048307  62.0660377  52.5943915  47.8784289  63.6261443
  52.1833460  48.1157974  64.8723063  52.5005689  48.9435185  65.3564007
  51.5566807  47.4667721  65.3263509  52.1730736  46.8014937  62.9752511
  52.4811719  46.6350287  62.0279049  51.5462461  46.1532548  63.4301931
  51.0850219  53.0843251  60.9220195  50.6155840  52.3286001  60.0450236
  51.3437488  54.3634988  60.6978945  51.6909560  54.9200808  61.4658548
  51.1309572  55.0166876  59.4113223  50.5898939  54.3411670  58.7487352
  50.3182453  56.3059084  59.5658342  50.6554220  56.7422023  60.5060782
  50.5745867  56.9737512  58.7434139  48.8061746  56.1109320  59.6095640
  48.3006477  55.0599745  59.1809477  48.1213053  57.0617458  60.0510357
  52.4793479  55.3400643  58.7749584  53.3560670  55.9371345  59.4059693
  52.6073349  54.9316409  57.5151177  51.8240292  54.4733226  57.0718618
  53.8417288  55.1127384  56.7356374  54.6482027  55.4576229  57.3827491
  54.2598996  53.7646039  56.0996967  53.4120829  53.3773680  55.5345822
  55.0613304  54.0347147  55.4120567  54.7548375  52.7016185  57.0588836
  53.8972396  52.0250128  57.9056797  52.8433595  52.3032187  57.9118159
  54.3490816  51.0173145  58.7312662  53.6547840  50.5018769  59.3948750
  55.6661395  50.6708045  58.7216008  56.1820625  49.6648673  59.5167812
  55.5179001  49.2445602  60.0679889  56.5537058  51.3236257  57.8919566
  57.6088242  51.0504764  57.8772902  56.0879005  52.3409259  57.0680515
  56.7789826  52.8709086  56.4125945  53.5870477  56.1457804  55.6392461
  52.6201075  56.0650088  54.8700982  54.5175903  57.0911698  55.5595258
  55.3072304  57.0454224  56.1875983  54.4463887  58.2135028  54.6074413
  54.2981063  57.8293716  53.5982065  53.2672719  59.1568142  54.9565274
  53.2277378  59.9963569  54.2624781  52.3310885  58.6007482  54.9070175
  53.3462609  59.7459932  56.3421510  54.0071038  60.9407118  56.5497251
  54.4694234  61.4366221  55.6962420  54.0890883  61.5058800  57.8005618
  54.6171084  62.4499940  57.9345176  53.5098770  60.8863557  58.8764182
  53.5559086  61.3349112  59.8687785  52.8638035  59.6829668  58.6935158
  52.4338454  59.1631253  59.5496706  52.7599004  59.1335730  57.4257159
  52.2084391  58.2051041  57.2776086  55.7551873  58.9709671  54.6747332
  56.6337972  58.7279382  55.5251957  55.8964018  59.9114358  53.7454254
  55.1875180  60.0127730  53.0331657  57.0800565  60.7940843  53.6863648
  57.9240798  60.3113137  54.1789665  57.4659472  61.0879870  52.2234262
  57.6143080  60.1181538  51.7485453  56.6771459  61.6303402  51.7021339
  58.7221955  61.8645921  52.1601267  59.7627537  61.2526877  52.4362021
  58.7189774  63.0815590  51.9060655  56.8222826  62.0935369  54.4169464
  55.8786385  62.8239535  54.0887125  57.6062525  62.3902445  55.4434569
  58.3399675  61.7582324  55.7303756  57.3819718  63.5877832  56.2324742
  56.3136019  63.7488213  56.3765280  58.0471011  63.4321044  57.6136796
  57.6232907  62.4955979  57.9762256  59.1237555  63.3182540  57.4873728
  57.7721146  64.5259024  58.6103211  58.1666806  65.4550947  58.1992004
  56.2869509  64.6958597  58.9167264  55.8917557  63.7671557  59.3283433
  56.1545575  65.4992236  59.6414188  55.7521540  64.9427750  57.9995974
  58.5782401  64.2709174  59.9042834  59.6431489  64.2547959  59.6723163
  58.3752487  65.0657533  60.6220102  58.2855963  63.3121365  60.3322994
  57.8680701  64.8559012  55.5587249  57.2231459  65.9012401  55.6802992
  59.0092270  64.8216448  54.8826786  59.5232241  63.9598020  54.7680782
  59.5990091  66.0473305  54.3755882  59.7142949  66.7669650  55.1861031
  60.9732658  65.7638764  53.7760531  61.6243003  65.4622272  54.5965780
  60.8542830  64.9314755  53.0824740  61.5856334  66.9341707  53.0543916
  60.9128728  67.1802117  52.2328335  61.6085139  67.7607516  53.7645624
  62.9585337  66.7004382  52.5194702  63.2632919  67.5658141  51.9309586
  63.6476782  66.5679573  53.3535135  63.0164466  65.5297054  51.6826071
  62.1603545  65.1792071  51.2771980  64.1180991  64.9015704  51.4352467
  65.2804063  65.4020140  51.8281006  65.3062698  66.2810989  52.3247301
  66.1351387  64.9020804  51.6291066  64.0792852  63.7656605  50.7815700
  63.1917575  63.3916216  50.4774491  64.9370934  63.2699774  50.5851980
  58.7139167  66.7513536  53.3812221  58.6209930  67.9679374  53.3764173
  58.1039020  66.0000642  52.4468200  58.2168807  64.9964315  52.4393083
  57.2500292  66.6104729  51.4249831  57.8355069  67.2931456  50.8091316
  56.6504225  65.5224972  50.5186350  56.2158026  64.8346066  51.2439014
  55.8532567  66.0634120  50.0086960  57.4512503  64.7488493  49.5139441
  57.8653176  65.4473642  48.7868086  58.2640599  64.2594598  50.0505423
  56.6036906  63.6839204  48.7803420  56.1043975  62.7932804  49.4958676
  56.4485868  63.7718075  47.5226168  56.0904527  67.3791220  52.0952082
  55.7022362  68.4374822  51.6490663  55.5438065  66.8008151  53.1234552
  55.8379860  65.8732371  53.3939306  54.4635750  67.4336267  53.8794622
  53.6261827  67.7058444  53.2369898  53.9849427  66.4037053  54.8916943
  53.6085784  65.4844660  54.4428643  54.8911552  66.1867632  55.4572163
  52.9818868  66.8368159  55.8601194  52.0892068  67.8526403  55.6479633
  52.1232435  68.4139339  54.7142123  51.1505773  68.1672729  56.6076023
  50.4781090  69.0117517  56.4567956  51.0632133  67.4166011  57.7531189
  50.3249819  67.6743815  58.5125025  51.8855837  66.3638942  57.9417117
  51.7897502  65.7540523  58.8400485  52.8394642  66.0609311  57.0069971
  53.4969524  65.2046053  57.1570483  54.9843254  68.7310973  54.5362134
  54.3895334  69.8066058  54.4093716  56.0979763  68.6284840  55.2473267
  56.5653312  67.7373363  55.3341288  56.6796918  69.7775871  55.9135304
  56.0130027  70.1350469  56.6982898  58.0095952  69.3858272  56.5455295
  58.5748262  68.8620834  55.7746173  58.5170299  70.3168776  56.7980273
  57.9154766  68.5445376  57.7361216  57.2185517  68.9838645  58.4498361
  57.5266249  67.5860545  57.3923139  59.2781064  68.3303658  58.4161668
  60.2243434  68.9630291  58.0009529  59.3597082  67.5701416  59.3832870
  56.9422251  70.9140493  54.9807165  56.7090394  72.0889191  55.3518046
  57.4761501  70.6080568  53.8200435  57.7338661  69.6526550  53.6178331
  57.8004983  71.6418249  52.8278763  58.3557158  72.4461667  53.3104392
  58.6581354  71.0685919  51.6857241  58.1752869  70.1694972  51.3028594
  58.7240918  71.8115066  50.8908483  60.0530373  70.7246341  52.1729609
  60.4560949  71.6750709  52.5226969  59.9648971  70.0365466  53.0137142
  60.9819006  70.1349087  51.1342487  60.5363748  69.7180307  50.0492697
  62.1711586  70.0533086  51.4623124  56.5590907  72.2937868  52.2906000
  56.5567949  73.4919645  51.9998357  55.4976132  71.5397887  52.1377554
  55.5126064  70.5588006  52.3776237  54.2638280  72.0996539  51.5789129
  54.5099176  72.6834205  50.6919204  53.3369716  71.0272692  51.1928557
  53.0740923  70.4394344  52.0723128  52.4343070  71.4631376  50.7647020
  53.8138324  70.3824200  50.4547008  53.5710997  73.0215139  52.5730843
  52.9164658  74.0097932  52.1654970  53.6939990  72.7624838  53.8644836
  54.2196211  71.9581905  54.1758242  52.9286606  73.5322360  54.8697446
  52.2992835  74.3102744  54.4377263  52.0460347  72.6205464  55.7663720
  51.4635882  73.2567289  56.4328006  51.0984917  71.7487226  54.9356528
  51.6802671  71.1118856  54.2692618  50.4994671  71.1266074  55.6006660
  50.4407568  72.3866310  54.3452637  52.9244322  71.8038890  56.7060324
  53.5031893  72.4762517  57.3393339  52.2966280  71.1680957  57.3303147
  53.6027765  71.1822584  56.1216310  53.7595191  74.4874503  55.7284058
  53.1897356  75.1634852  56.5912050  55.0761929  74.5689644  55.4943832
  55.4880025  73.8948121  54.8650734  55.9648259  75.4921168  56.1999426
  56.9930057  75.2841987  55.9037745  55.6521255  76.9666289  55.8891701
  54.6115076  77.1339549  56.1670472  56.2973048  77.5936377  56.5045591
  55.8448446  77.3154314  54.4515244  56.5773588  76.6101493  53.7410450
  55.2902352  78.3265618  53.9530971  56.0286692  75.2950161  57.6844847
  56.0032661  76.2482440  58.4633071  56.1509192  74.0521552  58.0942087
  56.1428650  73.2663927  57.4596917  56.3447323  73.7963770  59.4872970
  56.7207542  74.6600497  60.0357277  54.9662274  73.4858664  59.9725695
  54.3677581  74.3273018  59.6233987  54.6637593  72.5815934  59.4444563
  54.7530834  73.2981504  61.4512873  55.4090507  72.4957549  61.7888805
  55.0536788  74.5690979  62.2445754  54.3977373  75.3718735  61.9078397
  54.8855373  74.3841114  63.3055227  56.0924889  74.8591942  62.0870378
  53.3352971  72.8966324  61.6358147  53.1473600  71.9673567  61.0980175
  53.1341357  72.7488349  62.6968478  52.6822886  73.6785797  61.2482103
  57.2688101  72.5879529  59.6808648  56.9386999  71.5130251  59.1140081
  58.3316015  72.7421261  60.4890349  58.7466055  73.9052230  61.3359134
  57.8862389  74.2383260  61.9163547  59.0775276  74.7121039  60.6820536
  59.8902997  73.3605226  62.2268804  59.5201453  72.9041925  63.1449478
  60.6246012  74.1274279  62.4733732  60.4806651  72.3283321  61.2975707
  61.0518538  71.6172066  61.8943480  61.1130367  72.7264363  60.5040225
  59.2642348  71.6392370  60.6957615  59.4298092  71.1514807  59.7351486
  58.7536125  70.6461120  61.6723052  58.8918596  70.7334102  62.8821559
  58.3412473  69.5433548  61.1278454  58.4871515  69.3936922  60.1397096
  57.5900419  68.5760595  61.8531788  56.9526251  69.0472217  62.6013801
  56.6976232  67.8392552  60.8412192  57.3296139  67.3263750  60.1162083
  56.1261114  67.1044732  61.4082903  55.7306080  68.7818202  60.1023750
  56.3360387  69.5294242  59.5898882  54.8434959  68.0846373  59.1044861
  54.2373838  67.3371522  59.6163386  54.1910829  68.8145820  58.6252797
  55.4591520  67.5969442  58.3486929  54.8602108  69.3835727  61.1023694
  55.4618431  69.9407585  61.8204794  54.1587212  70.0602207  60.6143520
  54.3075010  68.6008939  61.6220085  58.3754457  67.6023563  62.6902050
  57.7899820  66.7475975  63.3214147  59.6810922  67.6772741  62.6835959
  60.1409155  68.2807650  62.0169172  60.5232883  66.9306633  63.6577083
  60.0116849  66.0213631  63.9731988  61.8486619  66.5451218  63.0145546
  62.3676237  67.4545713  62.7117686  62.4511949  66.0110740  63.7492974
  61.6328845  65.6739148  61.8198397  61.0814952  64.7875223  62.1334940
  61.0433904  66.2283935  61.0896670  63.0083886  65.2358565  61.1649426
  63.6680906  64.8165761  61.9246111  62.8328771  64.4930347  60.3867968
  63.6562538  66.3842973  60.5714543  63.1468656  67.2564321  60.5734220
  64.8654713  66.3674024  60.0658995  65.5162830  65.2252638  60.0196655
  65.0803170  64.3845600  60.3707366  66.4489510  65.1942833  59.6333106
  65.3830764  67.4814086  59.5876569  64.8459840  68.3363481  59.6143068
  66.3143561  67.4748547  59.1967939  60.8745786  67.7617516  64.8830137
  61.6234755  67.2942295  65.7437868  60.4289357  69.0185896  64.9301494
  59.9092075  69.3662795  64.1369952  60.6496822  69.9154685  66.0593718
  59.6870311  70.3452374  66.3363207  61.0760001  69.3968415  66.9180792
  61.5786564  71.0223218  65.6458313  61.7669775  72.0392112  66.3265406
  62.1157508  70.8787762  64.5419295  71.1988988  42.6632663  63.1161321
  70.2540460  42.5117884  63.4392553  71.7053122  43.1769191  63.8231021
  71.5661858  41.7899587  62.7660841  71.1447648  43.5627171  61.9430448
  71.7128950  44.4679388  62.1572894  71.7252712  42.9092688  60.7179461
  72.7606489  42.6888585  60.9777760  71.1729323  41.9763289  60.6054964
  71.6859908  43.6647386  59.4395266  71.4075128  44.7024319  59.6232207
  72.6602283  43.6314193  58.9518247  70.6732552  43.0294416  58.5633541
  69.6950087  43.2620548  58.9840962  70.7648799  43.4920923  57.5806748
  70.8212201  41.5254646  58.4296324  71.3260561  41.3238840  57.4848539
  71.4431128  41.1780446  59.2546464  69.5127725  40.8081626  58.4570657
  68.9365262  41.1296342  57.6924116  69.6713332  39.8149689  58.3647355
  69.0450103  40.9944754  59.3326142  69.7319737  44.1146993  61.8018250
  69.6144525  45.2889340  61.9600862  68.6952861  43.3182527  61.5399823
  68.8421308  42.3563016  61.2694533  67.3054192  43.8168532  61.6311176
  67.2882204  44.9067158  61.6294118  66.4275269  43.2857037  60.4729387
  66.4404039  42.1957869  60.4689557  64.9913025  43.7783073  60.6760517
  64.9775544  44.8682149  60.6796841  64.3623409  43.4102282  59.8654804
  64.6106201  43.4074888  61.6277207  67.0155414  43.7504306  59.1331709
  67.0026896  44.8402202  59.1503237  68.0474292  43.4000909  59.1093130
  66.2803822  43.2524960  57.8905997  65.2484785  43.6028518  57.9135214
  66.7740072  43.6360220  56.9976599  66.2932162  42.1627217  57.8725121
  66.7085130  43.3629003  62.9437587  66.5308529  42.1683404  63.1794885
  66.3425140  44.2626333  63.8140456  66.6130117  45.2350348  63.8510012
  65.7237717  43.6728523  64.9930457  65.8834549  42.5957077  64.9444671
  66.2611852  44.1852410  66.3236492  67.0121464  44.9496132  66.1239202
  65.4368095  44.6245497  66.8853543  66.8897429  43.0543304  67.1412808
  66.8671286  43.3608341  68.1870556  66.2749029  42.1637945  67.0108328
  68.3236433  42.7446000  66.7345284  68.7154460  43.0586064  65.5811747
  69.0662004  42.1754133  67.5671391  64.1954108  43.6328872  64.9297936
  63.4988828  44.3753424  64.1786711  63.7102557  42.6983141  65.7156540
  64.3438659  42.1917675  66.3173582  62.2952146  42.3958908  65.7977817
  61.8633652  42.2921480  64.8023709  62.1245353  41.0711039  66.5455479
  62.6922368  41.1402004  67.4734703  61.0653859  40.9560651  66.7759138
  62.5918558  39.8960625  65.7658329  63.6440795  40.0381042  65.5193573
  62.4769468  38.9866936  66.3557025  61.8114211  39.7400013  64.4805327
  60.5650492  39.7369399  64.4947035  62.5258459  39.5919938  63.3700748
  62.0568158  39.4835228  62.4821861  63.5346573  39.5886400  63.4189596
  61.6050773  43.4524634  66.5812144  61.9516175  43.7130070  67.7274177
  60.6058313  44.0907758  65.9924652  60.0246976  43.8819266  64.6743242
  59.7207982  42.8441014  64.5377066  60.7242989  44.1618003  63.8867154
  58.8559776  44.8177437  64.7600100  57.9911340  44.2172626  65.0420864
  58.7038782  45.2260539  63.7608854  59.0883142  45.8203302  65.6690743
  58.1541101  46.1684890  66.1096955  59.6224720  46.6659746  65.2358762
  59.9387388  45.1611986  66.7252214  60.7181244  45.8145792  67.1173314
  59.0497192  44.6766055  67.8792468  58.4868390  43.5863609  67.8213974
  58.8614873  45.5287428  68.8858772  59.3667784  46.4031078  68.9021884
  58.0128198  45.2097111  70.0046587  58.3508063  44.2862684  70.4748905
  58.0582267  46.3356763  71.0464483  57.8547496  47.2760563  70.5342163
  57.2755572  46.1458770  71.7809582  59.4038978  46.4231314  71.7508792
  59.4550453  45.6162508  72.4819254  60.1854174  46.2857288  71.0035843
  59.6013075  47.7398436  72.4446922  60.6255722  47.7657475  72.8165925
  59.4646680  48.5266646  71.7028420  58.6923099  47.9858089  73.5602182
  58.0838409  47.2346743  73.8528984  58.5739027  49.1799271  74.1655698
  59.3274775  50.2105336  73.8007681  60.0019953  50.1007830  73.0570743
  59.2226958  51.0994657  74.2686572  57.7500597  49.3131393  75.1875362
  57.2148558  48.5186836  75.5076879  57.6584375  50.2089495  75.6449507
  56.5864760  44.9353014  69.5908666  55.8812103  44.2323295  70.3027934
  56.1395151  45.5399046  68.4783924  56.7860788  46.1633063  68.0164129
  54.8001985  45.4354267  67.9566631  54.1036516  45.2128016  68.7649697
  54.3778546  46.7648500  67.2932767  53.5137471  46.5452223  66.6662352
  54.1025554  47.5057859  68.0438262  55.3990910  47.4124291  66.4052387
  56.1222533  48.4663919  66.7232713  55.9707784  48.8653553  67.7262585
  56.9254839  48.8344386  65.6912711  57.5801101  49.6035669  65.6936524
  56.6922504  47.9886315  64.6341649  57.2312132  47.9789568  63.3569913
  57.9454896  48.7583538  63.0915703  56.8297380  46.9843545  62.5035899
  57.2509920  46.9120496  61.5008851  55.8591056  46.0330228  62.9123747
  55.5084975  45.2480784  62.2422735  55.3382033  46.0809043  64.1665470
  54.5820948  45.3365779  64.4163043  55.7523150  47.0679364  65.0551196
  54.5844454  44.3015827  66.9951922  53.5182312  44.1513737  66.4482090
  55.5940030  43.5134933  66.7430225  56.5276649  43.6794556  67.0906306
  55.3668503  42.3364845  65.8822386  55.1351129  42.6926056  64.8784584
  56.6426000  41.4622150  65.8147059  56.8822575  41.0907064  66.8110219
  56.4712184  40.6196193  65.1448096  57.4738748  42.0598585  65.4406688
  54.2119099  41.4577988  66.3629267  54.1051416  41.1292757  67.5438971
  53.4112392  40.9896008  65.4199452  53.5641491  41.2479027  64.4555812
  52.3174173  40.0882978  65.7249348  51.6374837  40.5427269  66.4455481
  51.5452006  39.7937099  64.4461024  51.0956746  40.7180012  64.0831819
  52.2359105  39.4074631  63.6965470  50.5216640  38.8313796  64.6894751
  50.0454759  38.6575855  63.8742203  52.8223456  38.7664202  66.2804931
  53.8720276  38.2631424  65.8609155  52.0581235  38.1962889  67.2078694
  51.2937629  38.7073019  67.6258620  52.3534269  36.8534162  67.7119923
  53.4043660  36.6223819  67.5380689  52.0722827  36.7544022  69.2167475
  50.9961540  36.8563074  69.3569678  52.3888482  35.7644943  69.5453333
  52.7958014  37.8192438  70.0394498  53.8574060  37.7701317  69.7972006
  52.4026109  38.7941400  69.7512127  52.6080094  37.6195318  71.5331466
  51.5534542  37.7635433  71.7682491  52.8990602  36.5989417  71.7817121
  53.4549732  38.6076006  72.3522072  54.4278341  38.6663343  71.8641575
  52.9576943  39.5754098  72.2877229  53.6416867  38.2342796  73.8015031
  54.1028484  37.3377124  73.8614784  54.2068851  38.9349176  74.2594956
  52.7403560  38.1802205  74.2540289  51.5902171  35.7671592  66.9632833
  51.6034072  34.6148318  67.3259368  50.9069626  36.1115829  65.8934938
  50.8393431  37.0849124  65.6324254  50.1792773  35.1127079  65.0757965
  49.8970158  34.2460178  65.6735221  48.8880785  35.7880921  64.5408087
  48.3175184  36.0827390  65.4215718  49.1708560  36.6773678  63.9774921
  48.0293893  34.8761204  63.6578673  48.5476729  33.9131237  63.0384890
  46.8033899  35.1146560  63.5302889  51.1403497  34.6624926  63.9693902
  51.5283728  35.4324201  63.0673265  51.5226327  33.3860034  63.9626816
  51.2540584  32.7472606  64.6975114  52.4537703  32.9088283  62.9305456
  53.3710260  33.4967084  62.9642814  52.8055075  31.4456727  63.1551024
  51.9372623  30.9305393  63.5660611  53.0766065  30.9948469  62.2004499
  53.9006950  31.3305250  64.0634059  54.1109768  30.4031531  64.1951736
  51.9713328  33.1188678  61.4952326  52.7936760  33.3467515  60.5766611
  50.6621542  33.0236302  61.2881956  50.0246841  32.7716607  62.0299789
  50.1321556  33.1897618  59.9596348  50.6957832  32.5498777  59.2806860
  48.6728084  32.7777723  59.9147106  48.0939562  33.4155418  60.5827527
  48.2964596  32.8820502  58.8970722  48.5779785  31.7392905  60.2319838
  50.3305512  34.6331345  59.4755640  50.3623958  34.8507373  58.2873738
  50.3845374  35.6043526  60.3922548  50.2068551  35.3953640  61.3642898
  50.6461801  36.9963906  60.0176534  49.9342210  37.2642895  59.2369846
  50.4697293  37.9361798  61.1687392  51.1821007  37.6862805  61.9549817
  50.6432823  38.9587267  60.8335117  49.4550970  37.8490430  61.5573621
  52.0275227  37.1601946  59.4635616  52.1555649  38.0876861  58.7095167
  53.0306226  36.3594290  59.8600087  52.8635563  35.6647128  60.5738417
  54.3675566  36.4571602  59.2912451  54.4828317  37.4752214  58.9192745
  55.0736730  36.2855995  60.1036895  54.6631541  35.4862215  58.1685807
  55.7767619  35.4712240  57.6569277  53.7007012  34.6636355  57.7797894
  52.7968976  34.6996926  58.2291648  53.9150366  33.6625614  56.7247293
  54.9462304  33.7244364  56.3770081  53.6568222  32.2372756  57.2480883
  52.6254466  32.1570544  57.5914961  53.8293928  31.5186509  56.4469028
  54.3326201  32.0259696  58.0767898  53.0036731  33.9341818  55.5388883
  51.9249205  34.3777424  55.7077573  53.4497914  33.6354818  54.3424691
  54.4210233  33.3954330  54.2039613  52.5746533  33.6930042  53.1694646
  52.0958877  34.6705148  53.1115370  53.3368508  33.4723725  51.9408859
  53.8147796  32.4935204  51.9800326  52.6650976  33.5141108  51.0835028
  54.0995325  34.2448196  51.8421876  51.4642153  32.6532364  53.3135772
  51.7183320  31.4760423  53.5881565  50.2313310  33.0675569  53.0985616
  50.0554670  34.0122817  52.7876493  49.1015840  32.2155475  53.3667063
  49.4360513  31.2168341  53.6474240  48.2859203  32.8075513  54.5325628
  47.8497027  33.7494100  54.1998232  47.4891735  32.1066895  54.7817361
  49.1011540  33.0411820  55.6971815  48.5588477  33.4087691  56.3988819
  48.2265145  32.0194512  52.1402828  47.1457915  31.4045281  52.2466848
  48.6477530  32.5850187  51.0033177  49.4866793  33.1457111  51.0472050
  47.9868266  32.4384828  49.7247265  47.3847663  31.5307459  49.7651776
  47.0653583  33.6290353  49.3343141  46.4609930  33.3138075  48.4837412
  46.1544731  34.0740757  50.4647924  46.7581706  34.3899107  51.3156139
  45.5375518  34.9073493  50.1283963  45.5129093  33.2448821  50.7630111
  47.8901282  34.7456467  48.9631557  47.3326281  35.4882551  48.7195849
  49.0355455  32.3189416  48.6300554  50.1706498  32.7394917  48.7899329
  48.6791962  31.8119269  47.4556789  47.4560162  31.0385683  47.1630543
  46.6324006  31.7379093  47.0192494  47.2417058  30.3963447  48.0172901
  47.7701589  30.2537327  45.9208460  46.8798175  30.1171942  45.3070476
  48.1928237  29.2800533  46.1686449  48.7948641  31.1268878  45.2234133
  48.2983183  31.8924746  44.6272438  49.4498769  30.5363475  44.5828511
  49.6157710  31.7887224  46.3473711  50.4422815  31.1337730  46.6230884
  50.1634066  33.1863650  45.9975207  51.3702585  33.2764921  45.7425705
  49.3384663  34.2336404  45.9423142  48.3405099  34.1476956  46.0719135
  49.8939897  35.5701117  45.6534298  50.4535148  35.5336820  44.7187086
  48.8008645  36.6073750  45.5223113  48.1062775  36.3832141  46.3318791
  49.2320058  37.5963705  45.6775689  48.0704334  36.5816374  44.2178965
  48.4451881  35.8436119  43.2831114  47.0816230  37.3507765  44.0208174
  50.8632962  36.0468625  46.7341604  51.8967463  36.7017574  46.4250061
  50.5463330  35.7821722  47.9859365  49.6461085  35.4007770  48.2393787
  51.4709789  36.1477957  49.0579978  51.7340093  37.2014633  48.9647303
  50.8483880  35.9212113  50.4290329  50.5086326  34.8862218  50.4672715
  51.6302677  36.0741263  51.1729289  49.6901852  36.8411333  50.7213869
  50.0378135  37.8741700  50.7118686  48.9750929  36.6914960  49.9124673
  49.0207919  36.5463535  52.0473896  49.6216834  35.8198502  52.8760827
  47.9221556  37.0710803  52.2703854  52.7990328  35.4193977  48.9343778
  53.8517370  35.9624771  49.1673494  52.7354176  34.1452384  48.5097754
  51.8549523  33.6569469  48.4294537  53.9640649  33.3911905  48.3054064
  54.5798119  33.4656379  49.2017391  53.6894457  31.9076520  48.0206420
  52.8931770  31.8465755  47.2788030  54.5992455  31.4665184  47.6134990
  53.2674656  31.1357204  49.2950816  54.0782386  31.2339139  50.0169584
  52.3727871  31.6201487  49.6862102  52.9798051  29.6572838  49.0518971
  52.1934295  29.5904859  48.3000657  53.8907963  29.2000893  48.6656748
  52.5387701  28.9232525  50.3156377  52.3891907  27.8719263  50.0697924
  53.3294581  29.0127229  51.0605583  51.2719523  29.4906356  50.8645850
  50.5390470  29.4074374  50.1746375  51.0092201  28.9836568  51.6976782
  51.4104646  30.4647026  51.0928547  54.8670418  34.0238065  47.2326178
  56.0833259  34.0875407  47.3625564  54.2752250  34.4688129  46.1396273
  53.2835875  34.3364851  46.0009053  55.0408533  35.1325898  45.0840538
  55.8484291  34.4679313  44.7772157  54.1903552  35.4743793  43.8881784
  53.2979457  35.9930531  44.2384399  54.9344887  36.3573023  42.9037595
  55.8268396  35.8390820  42.5526778  54.2878869  36.5817281  42.0554436
  55.2240541  37.2862509  43.3949881  53.7799289  34.1827776  43.1779839
  54.6535904  33.7857726  42.6610668  53.4495514  33.4691351  43.9327452
  52.6973755  34.4069385  42.2088239  53.0271954  35.1201714  41.4534316
  52.4380229  33.4635407  41.7283697  51.8231567  34.8035362  42.7251101
  55.6763549  36.4063826  45.6115436  56.8357152  36.6993736  45.3315969
  54.9182780  37.1902659  46.3876462  53.9411508  36.9866651  46.5421404
  55.4642802  38.4476115  46.9295353  55.8613717  39.0429736  46.1073665
  54.3846240  39.2556741  47.6387260  53.8715393  38.5878808  48.3307486
  54.9352545  40.4376131  48.3963218  55.4481197  41.1061390  47.7048426
  54.1178968  40.9729015  48.8795331  55.6383132  40.0893221  49.1529615
  53.4263361  39.7858731  46.6276997  52.9680530  38.9556514  46.0902886
  52.6513270  40.3651126  47.1296381  53.9578396  40.4251384  45.9227567
  56.6688439  38.1479471  47.8193878  57.6760493  38.8642667  47.7289530
  56.6172678  37.1196651  48.6534340  55.7569375  36.6217057  48.8322288
  57.7880647  36.7903614  49.4606711  58.1962789  37.7046201  49.8914742
  57.4366112  35.8310823  50.5951538  56.9418872  34.9931216  50.1040639
  58.3739595  35.4914199  51.0357304  56.5293481  36.3854877  51.6931949
  55.5322410  36.5402193  51.2809615  56.4475121  35.4068108  52.8818179
  57.4442445  35.2519328  53.2948991  55.7965065  35.8222522  53.6510389
  56.0438503  34.4533977  52.5409940  56.9778724  37.7195382  52.2144829
  56.9880334  38.4437617  51.3999299  56.2910349  38.0564072  52.9909331
  57.9807515  37.6286732  52.6317071  58.9645163  36.2846019  48.6312786
  60.1128479  36.5523499  48.9635729  58.6845958  35.5645229  47.5473248
  57.7521780  35.2425528  47.3304571  59.7640722  35.1925562  46.6562129
  60.5292937  34.6457348  47.2071408  59.2363662  34.2962632  45.5306662
  58.3649014  34.8052253  45.1188338  60.0233682  34.2573811  44.7775288
  58.8544366  32.8891222  45.9334626  59.7769178  32.3345007  46.1052885
  58.3067034  32.9816844  46.8712897  57.9892391  32.1388774  44.9067260
  57.8114277  32.6088445  43.7460792  57.4866343  31.0434155  45.2567341
  60.4206327  36.4370686  46.0656646  61.6552730  36.5101344  45.9200566
  59.5946393  37.4113438  45.6912107  58.5935913  37.2799699  45.7184718
  60.1153904  38.6632502  45.1403002  60.8065595  38.4651701  44.3210635
  58.9356622  39.4940856  44.5992910  58.4812509  38.8808385  43.8211280
  58.1849398  39.7438642  45.3490419  59.3380655  40.7840058  43.9487324
  58.8773022  41.9976735  44.4403866  58.2198246  42.0016454  45.3097583
  59.2349275  43.1703108  43.8534020  58.9148003  44.1167711  44.2890993
  59.9889537  43.1633520  42.7272594  60.2593088  44.0996642  42.2390714
  60.4041106  41.9918126  42.2122116  61.0167431  41.9947381  41.3106723
  60.0690311  40.8156656  42.8012869  60.3861811  39.8729706  42.3553698
  60.9337104  39.4173446  46.1839683  62.0215614  39.9100865  45.8864723
  60.4860995  39.4282724  47.4275671  59.5719260  39.0611053  47.6502205
  61.2593754  40.0508881  48.4947167  61.4600068  41.0872726  48.2231410
  60.5359684  40.0305317  49.8259503  60.3037138  38.9868759  50.0379402
  61.2409614  40.4034808  50.5689132  59.2607995  40.8537684  49.8804705
  58.5777761  40.4472697  49.1345894  58.8314383  40.7249882  50.8740331
  59.5049766  42.6049264  49.5652732  59.1302668  42.7533073  47.8381007
  58.1033154  42.4343950  47.6598747  59.2465622  43.7919153  47.5284727
  59.8103084  42.1249315  47.2629585  62.6322812  39.3941278  48.6294769
  63.6427356  40.0649199  48.7623864  62.6758253  38.0505141  48.5493639
  61.8312318  37.5082669  48.4365400  63.9539599  37.3388702  48.6167133
  64.4613285  37.5731234  49.5525562  63.7202317  35.8228248  48.5514807
  63.0086292  35.6662887  47.7407912  64.6646136  35.3380912  48.3039401
  63.1689196  35.2291699  49.8266845  63.1819669  35.9089900  50.8726394
  62.7147693  34.0260695  49.8680842  64.8609229  37.7415477  47.4330086
  66.0800821  37.8301845  47.5593986  64.2767460  37.9467538  46.2640220
  63.2783986  37.8189503  46.1799501  65.0410271  38.2885451  45.0531375
  65.8691036  37.5824730  44.9910831  64.1764611  38.1238804  43.8331744
  63.3477735  38.8306392  43.8764039  64.7694149  38.3142926  42.9386078
  63.7848450  37.1072255  43.7992777  65.6295997  39.7005101  45.0750721
  66.5723632  39.9755127  44.3527983  65.0582726  40.6074257  45.8733675
  64.2437883  40.3726419  46.4225407  65.5358371  42.0014021  45.8927306
  65.4231399  42.4345403  44.8988545  64.7433471  42.8534452  46.8912832
  64.7713366  42.2772054  47.8160879  65.2957363  43.7833488  47.0263590
  63.2947269  43.1703182  46.5336913  62.7501274  42.2307270  46.4405220
  62.6418831  44.0239156  47.5762614  63.1856886  44.9639409  47.6696787
  61.6112666  44.2282585  47.2861331  62.6527507  43.5018473  48.5330409
  63.2043069  43.8575987  45.2259299  63.6219213  43.2174420  44.4488218
  62.1598274  44.0704417  44.9981981  63.7644902  44.7917621  45.2663325
  67.0098584  42.1077882  46.1703761  67.6697169  43.0208491  45.6670346
  67.5506493  41.2075325  46.9991576  66.9615995  40.5149412  47.4389722
  68.9710073  41.2585486  47.3798972  69.2610927  42.2849732  47.6044013
  69.2852192  40.3844094  48.5961215  70.3689589  40.3079003  48.6841829
  68.7081670  40.9550940  49.8913574  67.6243436  41.0314693  49.8042186
  68.9598086  40.2968121  50.7228865  69.1282561  41.9445468  50.0719363
  68.7647555  39.0693093  48.3921529  68.9638007  38.5242312  49.1569216
  69.8987504  40.8943117  46.2152340  71.1066487  41.0277339  46.3277868
  69.3455871  40.4691244  45.0980196  68.3525287  40.2917712  45.0482183
  70.1379234  40.2527671  43.9151178  71.0043930  39.6372323  44.1568752
  69.3185400  39.5413909  42.8541862  69.9998686  39.1993920  42.0751308
  68.8385358  38.6806723  43.3198680  68.3126473  40.3957637  42.2717379
  67.8211116  39.9053758  41.6087808  70.6204081  41.5690434  43.3253073
  71.5567562  41.5677609  42.5264803  69.9322768  42.6886000  43.6021455
  69.1118856  42.6369771  44.1889951  70.2952449  43.9872559  43.0279973
  69.5360480  44.7230037  43.2933167  71.6283168  44.4650092  43.5405909
  72.2998933  43.6364555  43.3156845  71.9833726  45.3659231  43.0402016
  71.6399822  44.7031582  45.0222690  70.7355408  45.3483062  45.5702094
  72.7250385  44.2964695  45.6723784  72.7909971  44.4295411  46.6713985
  73.4788989  43.8561209  45.1645512  70.3224367  43.9403943  41.5010285
  71.0964887  44.6444020  40.8239210  69.4584483  43.1062441  40.9254432
  68.7503305  42.6435459  41.4773299  69.5209379  42.8151988  39.4879921
  70.2991246  43.4087169  39.0081371  69.8526395  41.3307247  39.3021221
  70.7501522  41.1033501  39.8773361  69.0095817  40.7726530  39.7094419
  70.0664391  40.9375787  37.8600102  69.6145679  41.6370388  36.9453719
  70.7307279  39.9014279  37.5833050  68.2006427  43.1434473  38.8131679
  67.2393145  42.3604177  38.8947680  68.1342382  44.2993781  38.1551227
  68.9392478  44.9092468  38.1442151  66.9141870  44.7675340  37.5477233
  66.1777617  44.7967817  38.3507934  67.0773853  46.1723376  36.9862536
  67.8051256  46.1576275  36.1749104  66.1186524  46.5263706  36.6073182
  67.4254502  46.8407593  37.7737576  66.3810365  43.8170328  36.4783712
  65.1667067  43.6259521  36.3335984  67.2841529  43.2019716  35.7273814
  68.2650777  43.4355128  35.7852117  66.8601324  42.2273470  34.7177763
  66.0972835  42.7103182  34.1071214  68.0394586  41.8414633  33.8146918
  68.8077638  41.3484924  34.4103316  67.6937779  41.1627884  33.0349447
  68.4556314  42.7386487  33.3564802  66.2309161  40.9983718  35.3313005
  65.2913731  40.4354806  34.7559489  66.7172334  40.5241722  36.4582997
  67.5410077  40.9413992  36.8674657  66.1071209  39.3866362  37.1388903
  65.9512033  38.5728392  36.4307072  67.0175027  38.8852819  38.2701205
  67.9111078  38.5140095  37.7683975  67.2682137  39.7765577  38.8453347
  66.4777448  37.8102855  39.2081777  65.5495981  38.1843369  39.6403005
  66.2678515  36.9240496  38.6093181  67.4569337  37.4463927  40.3351756
  68.3361959  36.9817129  39.8890035  67.7506229  38.3643877  40.8442250
  66.8193864  36.4701096  41.3575057  65.7793937  36.7761002  41.4710204
  66.8587119  35.4790417  40.9054691  67.4857022  36.4311251  42.7185356
  67.4489880  37.3492775  43.1377587  67.0027690  35.7709301  43.3110034
  68.4492765  36.1471955  42.6136186  64.7446003  39.7914205  37.7246697
  63.7512048  39.0772428  37.6243436  64.7221554  40.9428579  38.3810371
  65.5471836  41.5211350  38.4519131  63.5313184  41.3636722  39.0746858
  63.1466421  40.5605745  39.7033012  63.8782081  42.5446614  39.9567114
  64.3860668  43.2620312  39.3120725  62.9859291  43.0056830  40.3802648
  64.8213991  42.1190435  41.0908631  65.5904377  41.4720935  40.6688012
  65.4699020  43.2973324  41.7578626  64.7014596  43.9445495  42.1805981
  66.1281926  42.9482668  42.5534174  66.0515703  43.8558984  41.0245370
  64.0797081  41.2703455  42.1255283  63.6825555  40.3760490  41.6453168
  64.7681432  40.9805594  42.9193686  63.2592823  41.8489431  42.5500578
  62.3952885  41.7071466  38.1172107  61.2220568  41.4769889  38.4393779
  62.7087376  42.2284856  36.9347894  63.6632807  42.4567893  36.6964112
  61.6497168  42.6447975  36.0224729  60.8935734  43.2164361  36.5605953
  62.1845848  43.4742132  34.8683781  62.9316176  44.1618953  35.2647815
  62.8101278  42.6190631  33.7851846  62.0635264  41.9313936  33.3879472
  63.1771649  43.2591215  32.9828694  63.6403267  42.0506304  34.2044139
  61.0908385  44.3272125  34.2552727  61.5078827  44.8370216  33.3867857
  60.2862413  43.6650201  33.9355478  60.5252632  45.3881390  35.2620400
  61.3292436  46.0510273  35.5818751  59.7452543  45.9728590  34.7744049
  60.1076040  44.8790254  36.1306388  60.7849716  41.4645413  35.5460445
  59.6399136  41.6665326  35.1467253  61.3042047  40.2434637  35.6263084
  62.2663221  40.1176866  35.9066824  60.5544793  39.0865704  35.2306117
  60.1597108  39.2225495  34.2237519  61.4487345  37.8652772  35.2386991
  61.9401160  37.8028404  36.2096496  60.8286180  36.9815541  35.0884023
  62.5068061  37.9390810  34.1357677  63.1808451  38.7645722  34.3645397
  63.0544181  36.9981288  34.1889574  61.9357912  38.1210287  32.7164517
  62.5505552  38.8469870  31.8543915  60.8842575  37.5194404  32.4300354
  59.3250163  38.8498899  36.0740624  58.4115054  38.1715911  35.6364766
  59.2599769  39.4261528  37.2740574  60.0569613  39.9388600  37.6234091
  58.0902072  39.2947141  38.1359435  57.7083907  38.2746860  38.0928411
  58.4672702  39.6178705  39.5938021  59.0302912  40.5506837  39.5627185
  57.5311750  39.7767594  40.1291337  59.2814065  38.5618553  40.3056636
  60.6411990  38.4442072  40.1117431  61.1310401  39.1209750  39.4116428
  61.3951975  37.4745617  40.7968146  62.4643882  37.3714207  40.6116253
  60.7543776  36.6000288  41.6569559  61.4725328  35.6563304  42.3440277
  62.4130940  35.6894930  42.1547013  59.4255208  36.7196685  41.8769535
  58.9297603  36.0737306  42.6015819  58.6866412  37.6759359  41.1714016
  57.6058642  37.7336868  41.3005758  56.9330836  40.1903775  37.6919774
  55.8376436  40.1020607  38.2575755  57.1677274  41.1309678  36.7884951
  58.1084874  41.1627794  36.4223557  56.2295686  42.1601273  36.3693128
  55.4244933  42.2189780  37.1017673  56.8929880  43.5607593  36.2466808
  57.7501563  43.4832420  35.5778364  56.1936875  44.3000186  35.8560729
  57.4063905  44.0997403  37.5364759  58.5569243  43.5718611  38.0973409
  59.0777119  42.7661539  37.5799280  59.0485097  44.0548061  39.3011419
  59.9592069  43.6366773  39.7299771  58.3745967  45.0765878  39.9612240
  58.7665856  45.4663035  40.9006740  57.2164084  45.5952631  39.4315791
  56.6764643  46.3841678  39.9552106  56.7374230  45.1108837  38.2282024
  55.8208567  45.5191856  37.8024142  55.4850073  41.8733575  35.0851840
  56.0623735  41.3989833  34.1180323  54.2077044  42.2233568  35.0785593
  53.7697969  42.5142352  35.9409549  53.4034909  42.2324526  33.8534149
  53.5067648  41.3109353  33.2804930  51.9233913  42.4380930  34.1866357
  51.8027690  43.3618385  34.7525372  51.3477909  42.5005764  33.2631205
  51.5643667  41.5984777  34.7818221  53.8643176  43.3850148  32.9879622
  54.4801147  44.3655683  33.4556904  53.4959563  43.3205954  31.7127740
  53.0236836  42.5140844  31.3298930  53.8087316  44.4307420  30.8157823
  54.8786857  44.6386387  30.8245243  53.3973828  44.0568594  29.3985604
  52.4314912  43.5552316  29.4579084  53.2915619  44.9819442  28.8318859
  54.3968295  43.1492924  28.7033096  54.6172990  42.3272006  29.3842348
  53.9207691  42.7579809  27.8042317  55.6935396  43.8568815  28.3245888
  55.6224333  45.0604955  27.9886076  56.7815441  43.2086668  28.3580959
  53.1169259  45.7250315  31.2103359  53.7148742  46.8116303  31.2019740
  51.8535615  45.6166423  31.6063919  51.4099134  44.7097877  31.5765496
  51.0505629  46.7724530  32.0372468  51.5170074  47.6759346  31.6445003
  49.5952361  46.7248094  31.5585694  49.1095559  45.8085763  31.8943233
  49.1052166  47.5840129  32.0165545  49.4904077  46.8280843  30.0547678
  50.5060707  47.1895553  29.4161533  48.4397871  46.5057036  29.4619397
  51.1745200  46.7374158  33.5760729  50.6458879  45.8444852  34.2430189
  51.9533564  47.6695921  34.1128506  52.3572277  48.3883898  33.5294835
  52.3062714  47.6463856  35.5175152  51.4505063  47.3463100  36.1222631
  53.4277754  46.6200462  35.7124953  53.1270595  45.6888545  35.2323368
  54.7168430  47.0885701  35.1248765  55.0184582  48.0195430  35.6048944
  55.4855658  46.3324581  35.2844359  54.5894954  47.2564503  34.0554376
  53.6503186  46.3867758  37.1109672  54.3540883  45.7430154  37.2199679
  52.7002757  49.0465172  35.9604203  52.7732272  49.9850745  35.1804996
  52.9470854  49.1869375  37.2581927  52.7329440  48.4453656  37.9095865
  53.4862029  50.4350021  37.7846071  54.1945315  50.8489692  37.0669714
  52.3823772  51.4719613  38.0386020  52.9184703  52.4000652  38.2369116
  51.8575104  51.5524301  37.0866884  51.3842058  51.2215853  39.1438191
  50.5099904  51.8325364  38.9189038  51.1141716  50.1670777  39.0872746
  51.9610632  51.6005437  40.8223343  52.2808273  53.3051187  40.7210963
  51.3641838  53.8321800  40.4563887  52.6412768  53.6655505  41.6845618
  53.0379365  53.4886393  39.9587270  54.2490198  50.1480384  39.0757880
  54.0267173  49.1383133  39.7349138  55.2102479  51.0216957  39.3530704
  55.3716950  51.7668800  38.6907000  56.0453019  50.9666786  40.5511943
  55.5747433  50.3328397  41.3028073  57.4070502  50.3916325  40.2164396
  57.2343353  49.3685468  39.8824268  57.7561624  50.9932280  39.3772116
  58.4563618  50.3952095  41.3117561  58.1760892  50.0652949  42.6227739
  57.1483158  49.8332099  42.9019112  59.1881564  50.0263506  43.5867824
  58.9674827  49.7272818  44.6114594  60.4797045  50.3234322  43.2203046
  61.5031327  50.2867396  44.1397166  61.2084324  50.0399101  45.0193907
  60.7501915  50.7065809  41.9367709  61.7599806  51.0073698  41.6575714
  59.7546196  50.7122908  41.0045488  59.9775971  50.9758306  39.9706591
  56.2081699  52.3661455  41.0963616  56.5697681  53.2754868  40.3449981
  56.0171242  52.5330416  42.4035541  55.6153452  51.8152012  42.9895389
  56.3320272  53.8047589  43.0008022  57.1203720  54.2886639  42.4242194
  55.1225425  54.7184985  43.0298503  54.6984624  54.7015100  42.0258749
  54.4156869  54.2730404  43.7298663  55.4000812  56.1506551  43.4360247
  55.8103190  56.1204528  44.4454274  56.1470697  56.5546787  42.7527421
  54.2061682  57.0572703  43.4310763  53.0930485  56.6689767  43.0667528
  54.4254106  58.3109842  43.8315302  53.6622685  58.9722870  43.8513816
  55.3535098  58.5929743  44.1129818  56.8802267  53.6245883  44.4036774
  56.2414461  53.0210712  45.2663173  58.0459722  54.2204673  44.6470346
  58.6400942  54.4616424  43.8666803  58.5039063  54.5664850  46.0101608
  58.2369505  53.7792945  46.7152601  60.0118118  54.7157252  45.9991397
  60.3176505  55.3474777  45.1652029  60.3314146  55.1718475  46.9361064
  60.6912335  53.3673236  45.8601316  60.5093027  52.5294125  46.7167063
  61.4519235  53.1627584  44.7895706  61.9183344  52.2752726  44.6673836
  61.5600572  53.8957371  44.1031668  57.8205892  55.8827320  46.3069914
  58.0801619  56.8807582  45.6280902  56.8612337  55.8970497  47.2203554
  56.6762082  55.0463189  47.7323340  55.9162880  56.9977713  47.3460362
  55.4616495  57.1999630  46.3762313  54.8142664  56.6614771  48.3387712
  55.2871413  56.4299755  49.2931797  54.1868603  57.5458623  48.4497861
  53.9532160  55.4786368  47.8970800  54.6055036  54.6059313  47.9288117
  53.1744851  55.3772242  48.6529871  53.1855572  55.5877598  46.2639118
  51.9973013  56.8921849  46.5237827  52.5165538  57.8037446  46.8196455
  51.4464285  57.0717946  45.6005383  51.3016907  56.5993407  47.3102111
  56.5157587  58.3624395  47.5608626  55.8361243  59.3339567  47.1531907
  57.7079295  58.5485358  48.1371040  58.5039317  57.5972816  48.9238339
  59.1777833  57.0482316  48.2661347  57.8426934  56.8961165  49.4329807
  59.2360300  58.4931722  49.8821752  60.1460914  58.0116821  50.2400222
  58.6018690  58.7471544  50.7315481  59.5525069  59.7348217  49.0464475
  60.4370168  59.6022215  48.4234238  59.6772630  60.6201773  49.6698905
  58.3016317  59.8901673  48.1554487  57.5580481  60.5522943  48.5990360
  58.7221433  60.4389538  46.7877026  59.0938105  61.6101848  46.7500284
  58.7184308  59.6234047  45.7504352  58.3058324  58.7086997  45.8652252
  59.2737634  59.9718381  44.4506891  59.5243086  61.0319449  44.4119593
  60.5385842  59.1666787  44.2272129  60.2030217  58.1322164  44.3005935
  60.9223623  59.3533329  43.2242300  61.6531552  59.4181954  45.2574283
  61.2053624  59.3638195  46.2497114  62.7574050  58.4445883  45.1626041
  63.2060248  58.4987057  44.1706815  63.5115766  58.6753705  45.9149773
  62.3716747  57.4392919  45.3319899  62.1851983  60.8052078  45.1320103
  61.3805986  61.5203907  45.3029845  62.9721334  60.9611590  45.8699220
  62.5924092  60.9496051  44.1312967  58.2402778  59.6380618  43.3693709
  57.2530159  58.9562243  43.6063467  58.4309741  60.1520064  42.1494521
  59.4642351  61.1164928  41.7259162  60.3494047  60.5847886  41.3768235
  59.7349803  61.7628594  42.5607853  58.7690871  61.8644449  40.6247682
  59.4969501  62.2885062  39.9330410  58.1521198  62.6629823  41.0368251
  57.8966897  60.7931328  39.9378389  58.4501266  60.1693395  39.2359212
  57.0431951  61.2418056  39.4295679  57.4106594  59.9382912  41.1300441
  56.4798736  60.3345450  41.5359001  57.2042092  58.4939634  40.7092999
  58.1567887  57.7191853  40.7447451  56.0191549  58.1308037  40.2517257
  54.8129530  58.9789433  40.1806895  55.0525810  59.9174266  39.6807617
  54.4499085  59.1864625  41.1872846  53.8531378  58.1288738  39.3872951
  53.9705053  58.3179786  38.3202603  52.8253379  58.3402570  39.6823305
  54.2382866  56.6986771  39.7445258  53.9322551  56.0206299  38.9478479
  53.8390911  56.3451212  40.6951787  55.7640387  56.7658372  39.8122088
  56.1790528  56.0868205  40.5570564  56.3894409  56.4706440  38.4508837
  56.6228566  57.3561828  37.6475904  56.5770308  55.1890722  38.2034309
  56.4645662  54.5431608  38.9717079  56.9290078  54.6551048  36.9026247
  57.1395808  55.4440691  36.1806180  58.1480913  53.7625534  37.0136940
  57.9493300  52.9621883  37.7264420  58.3738088  53.3318709  36.0381611
  58.9994934  54.3505106  37.3565060  55.7568236  53.8437824  36.3789931
  55.3003273  52.9176741  37.0541647  55.3240302  54.1384140  35.1553890
  55.7272726  54.9259743  34.6683124  54.2344024  53.4010590  34.5042025
  53.8332468  52.6609407  35.1965885  53.0948056  54.3471412  34.0802301
  53.5984719  55.2113602  33.6471654  52.4719914  53.8725463  33.3219676
  52.2394489  54.7899114  35.2203225  52.5024802  55.9657706  35.8955548
  53.3336494  56.5779298  35.5455286  51.7434366  56.3798841  36.9940227
  51.9493977  57.3268548  37.4929498  50.7198193  55.5997370  37.4173489
  49.9569437  55.9922628  38.5472061  50.2527297  56.8215596  38.9297985
  50.4419693  54.4243199  36.7782996  49.6158207  53.8052030  37.1279755
  51.2043782  54.0160571  35.6892362  50.9848836  53.0700496  35.1942694
  54.7303408  52.6066600  33.2776426  55.4739207  53.1635738  32.4047933
  54.3599448  51.3289838  33.2735817  53.7793710  50.9753145  34.0205431
  54.7683565  50.4019243  32.2109555  53.9746616  49.6701624  32.0603831
  54.9194772  50.9676215  31.2915815  56.0491995  49.6747466  32.5578284
  56.9198933  50.2235948  33.2589560  56.2040327  48.4389337  32.0732025
  55.5003438  48.0402099  31.4682723  57.2930955  47.5995337  32.4989710
  57.3160577  47.5370135  33.5869339  57.1096687  46.1679457  31.9230861
  56.0855999  45.8769430  32.1569662  57.2230389  46.2598147  30.8428976
  58.0559054  45.1236899  32.4378762  59.0766464  45.3579973  32.1357359
  58.0026968  45.0698440  33.5252453  57.6429684  43.7738830  31.8387982
  56.5936543  43.6670192  32.1137873  57.7225530  43.9217060  30.7618051
  58.3378953  42.5626224  32.1908807  57.9171247  41.9937751  32.9116194
  59.4359782  42.1173944  31.5931415  60.0832638  42.8705856  30.7011194
  59.7358159  43.7917463  30.4756357  60.9174871  42.5158455  30.2557762
  59.9223999  40.9443936  31.9500967  59.4576513  40.4052769  32.6666592
  60.7573432  40.5907915  31.5051990  58.6413067  48.1883150  32.1665897
  59.5472851  48.0847860  32.9752341  58.8052462  48.8291123  31.0129014
  58.0895597  48.8870534  30.3025951  60.1285491  49.3997315  30.7177453
  60.8944716  48.6335697  30.8379867  60.1823789  49.9223090  29.2854894
  59.2910179  50.5421283  29.1885419  61.0703640  50.5410229  29.1559681
  60.1621961  48.8344895  28.2198744  60.4126673  47.6349102  28.5105352
  59.9552009  49.1429965  27.0359270  60.5332810  50.4969209  31.7010669
  61.6627503  50.5255612  32.1103917  59.6270722  51.4179609  31.9850669
  58.7551219  51.4690655  31.4779276  59.9115645  52.4540821  32.9882653
  60.7872903  52.9994124  32.6363870  58.7499261  53.4274737  33.1108836
  57.8679149  52.8978825  33.4710076  59.0106118  54.2183317  33.8142233
  58.5373251  53.8649919  32.1354463  60.2554777  51.8695739  34.3417112
  61.1469561  52.3885409  35.0340006  59.5600749  50.8249766  34.7205587
  58.7516720  50.5278750  34.1930032  59.8605382  50.1351813  35.9807750
  59.9076706  50.8251482  36.8232853  58.8436374  49.0488110  36.2983033
  58.7555143  48.3906219  35.4339418  59.2692369  48.2350598  37.5148294
  59.3571286  48.8925372  38.3797568  58.5233370  47.4665401  37.7175888
  60.2320349  47.7633461  37.3183406  57.4319875  49.6422504  36.5061308
  57.1163601  50.1567877  35.5985335  56.7294822  48.8398117  36.7312486
  57.4530103  50.3493282  37.3354075  61.2868394  49.5958366  35.9496934
  62.0423784  49.8097901  36.8808076  61.6290462  48.8942980  34.8627526
  60.9572213  48.6831727  34.1387521  62.9642378  48.3457896  34.7417372
  63.1704885  47.6947193  35.5912473  63.1036231  47.5347718  33.4627685
  62.2185968  46.9083763  33.3511602  63.1690398  48.2237283  32.6206523
  64.3563312  46.6484783  33.4967715  65.1750687  47.3672788  33.5298726
  64.3527599  46.0601150  34.4143308  64.5397038  45.7330066  32.3142573
  63.6498987  45.6775473  31.4541235  65.5640033  45.0335112  32.3268607
  64.0382054  49.4253782  34.8018628  65.0700858  49.2602061  35.4766310
  63.7875855  50.5314435  34.1358087  62.9227022  50.6443718  33.6265707
  64.7650366  51.6005984  34.0760815  65.7332147  51.1995312  33.7762893
  64.3455515  52.6420564  33.0754285  63.3046924  52.8980132  33.2734124
  64.9704671  53.5225059  33.2250585  64.4832350  52.1646315  31.6525885
  65.5278431  52.2601893  31.3563393  64.1940097  51.1139731  31.6287610
  63.6344198  52.9185973  30.6689319  63.1843253  54.0027755  30.9692627
  63.4208458  52.3475170  29.4759849  62.8555577  52.8218824  28.7863994
  63.8260990  51.4452284  29.2716653  64.9564353  52.2476561  35.4443815
  66.0572321  52.6567968  35.8043985  63.8845831  52.2947119  36.2244088
  62.9917825  51.9797162  35.8725789  63.9458563  52.8204183  37.5845104
  64.4182787  53.8027152  37.5814978  62.5119472  52.9608618  38.1663370
  62.0155221  51.9930254  38.0959450  62.5380360  53.4126977  39.6192244
  63.0339329  54.3807502  39.6903584  61.5173147  53.4996913  39.9915942
  63.0815762  52.6817535  40.2178772  61.8053115  53.9273898  37.4005435
  60.9162836  54.0244631  37.7495512  64.7758389  51.8958003  38.4656429
  65.6470133  52.3465788  39.2121917  64.5008605  50.6013468  38.4112927
  63.7394836  50.2614890  37.8412916  65.2373649  49.6469453  39.2125519
  65.1840497  49.9138250  40.2680290  64.6232607  48.2560451  39.0277879
  64.5142689  48.1337005  37.9501739  65.3334239  47.5209151  39.4064067
  63.2543264  48.0474336  39.7100527  62.5809021  48.8521232  39.4149678
  62.6572048  46.7042772  39.2907741  63.3298952  45.8990111  39.5859568
  61.6917267  46.5673913  39.7778213  62.5235793  46.6872597  38.2091295
  63.3458404  48.0975704  41.2299357  63.7298397  49.0695995  41.5394570
  62.3556211  47.9451866  41.6592913  64.0176301  47.3138482  41.5800458
  66.7150496  49.6775928  38.8165600  67.5861264  49.6135272  39.6732202
  67.0101381  49.7726866  37.5255340  66.2816847  49.7517788  36.8262359
  68.4089450  49.8148892  37.0740195  68.9185755  48.9324373  37.4608719
  68.4957929  49.7988974  35.5366973  67.9976821  50.6812620  35.1349282
  69.5421367  49.8023378  35.2313233  68.0091230  48.9017574  35.1540860
  69.1185992  51.0290790  37.6632011  70.2828594  50.9492724  38.0844791
  68.4497906  52.1554265  37.7167670  67.5211681  52.2189936  37.3246971
  69.0210895  53.3461133  38.3403058  69.9925248  53.5523128  37.8909790
  68.3553451  54.1920751  38.1693308  69.2002023  53.1513878  39.8413499
  70.2470068  53.4708110  40.3866629  68.1584035  52.5955918  40.5001565
  67.2720369  52.3976782  40.0582473  68.2890122  52.3436184  41.9211505
  68.4273856  53.2754345  42.4694850  66.9702156  51.6565897  42.4242837
  66.2055631  52.2976844  41.9856457  66.9914356  50.7034835  41.8958537
  66.6457400  51.4132216  43.9052626  67.0038329  52.2659250  44.4821224
  65.1546179  51.2436129  44.1267890  64.7958580  50.3907568  43.5505714
  64.9611818  51.0731437  45.1858563  64.6338825  52.1448973  43.8033365
  67.3274265  50.1839116  44.4056958  68.4062169  50.2966625  44.2980021
  67.0814676  50.0338319  45.4569244  66.9932887  49.3219287  43.8282562
  69.4830035  51.5187383  42.2920448  70.2226815  51.8647911  43.2380986
  69.7020357  50.4520340  41.5520665  69.0790693  50.2046153  40.7965559
  70.7781225  49.5449167  41.8773363  70.8801261  49.4495217  42.9583516
  70.4743623  48.1725078  41.2946154  70.2315267  48.2437510  40.2344010
  71.3340191  47.5154863  41.4265737  69.2865448  47.4811129  41.9707268
  68.3027915  46.9252271  41.2046991  68.3724640  46.9646081  40.1176412
  67.2132179  46.3095328  41.8094062  66.4181899  45.8831758  41.1976456
  67.1391781  46.2389293  43.1732516  66.2827143  45.7547876  43.6424814
  68.1240174  46.7672350  43.9410560  68.0785905  46.7014536  45.0281206
  69.1879965  47.3909871  43.3341147  69.9807389  47.8295361  43.9401956
  72.1296696  50.0685674  41.4307364  73.1618025  49.4524169  41.7164026
  72.1676973  51.2187800  40.7489806  71.3180535  51.6115528  40.3695940
  73.4318238  51.9073014  40.4791668  74.1692092  51.1419264  40.2371686
  73.2795101  52.8292708  39.2833934  72.5475811  53.5927593  39.5469563
  74.5662063  53.4888168  38.8770034  75.2985316  52.7259191  38.6128320
  74.3883768  54.1343265  38.0168912  74.9468490  54.0855444  39.7059352
  72.8794719  52.0297908  38.1513539  72.7768971  52.5939713  37.3814324
  73.8948050  52.6832860  41.6965535  75.0890872  52.9192774  41.8578827
  72.9673158  53.0684416  42.5779211  71.9927900  52.9083943  42.3662996
  73.2952757  53.8842248  43.7301824  74.3634172  54.1001351  43.7537579
  72.5206026  55.2211815  43.7531293  72.8550366  55.8123942  44.6056084
  72.7670866  55.9878009  42.4849281  72.4324570  55.3973761  41.6319788
  72.2153423  56.9273727  42.5146533  73.8325593  56.1956824  42.3866699
  71.0906277  55.0644753  43.9276286  70.8926287  54.5594891  44.8730848
  70.6151650  56.0452906  43.9336426  70.6869295  54.4705999  43.1076038
  73.2103561  53.1580167  45.0625935  73.8618262  53.5865234  46.0220906
  72.4216269  52.0862723  45.1491222  71.8511636  51.7484598  44.3871815
  72.2634929  51.4456464  46.4915994  73.1847556  51.6227523  47.0465838
  71.0024390  51.9894554  47.3836314  70.2937788  52.2195470  46.5880450
  70.7065455  51.0633360  47.8764293  71.0127460  53.3641090  48.6139603
  70.6271116  52.9548868  49.5477290  72.0533983  53.6587536  48.7493467
  70.0438891  54.8088288  48.1568148  68.6640445  53.9564142  47.1537570
  68.1357513  53.2474497  47.7912322  67.9635760  54.7070442  46.7876981
  69.1030028  53.4268364  46.3082013  72.2268796  49.8963517  46.2298847
  71.8830419  49.3958329  45.1419447  72.6165564  49.1717982  47.2804280
  73.0722300  49.6672303  48.0334273  72.4144774  47.7408454  47.4209101
  72.1283264  47.3102281  46.4613344  73.7096249  47.0648877  47.8956146
  74.4672974  47.1804438  47.1205802  74.0457268  47.5576722  48.8079188
  73.5016576  45.6763650  48.1540798  74.3244444  45.2789485  48.4484976
  71.3392292  47.5026524  48.4522371  71.3662945  48.1066835  49.5091704
  70.4387109  46.5784710  48.1409602  70.3708738  46.2386125  47.1922802
  69.5099552  46.0468052  49.1350756  69.3280226  46.7904698  49.9109382
  68.1913329  45.6335452  48.5127513  68.3810731  44.9237832  47.7075576
  67.3064019  44.9870465  49.5565638  67.1158272  45.6964075  50.3619141
  66.3609609  44.6932071  49.1006028  67.8041859  44.1052572  49.9599963
  67.5004950  46.8440922  47.8977530  67.2650562  47.5195882  48.7201728
  68.2281987  47.3160340  47.2375881  66.2127176  46.5311993  47.1041248
  65.4843170  46.0596293  47.7637869  65.7963827  47.4567905  46.7065756
  66.4474594  45.8560728  46.2812030  70.2576844  44.8354055  49.7617212
  70.4294057  43.7986025  49.1349092  70.7606102  45.0394526  50.9585672
  70.6260609  45.9293011  51.4170052  71.5767400  44.0297025  51.6309376
  72.1529715  43.4697960  50.8943501  72.5349839  44.6836524  52.5975188
  71.9765362  45.4787389  53.0915560  72.8456658  43.9452186  53.3366346
  73.7672736  45.2737656  51.9199093  73.9659772  45.0325112  50.7066381
  74.5753613  45.9621765  52.5834104  70.7623491  42.9965759  52.3579506
  71.2987590  41.9066900  52.6214922  69.5078833  43.2866584  52.7338785
  69.1044213  44.1788163  52.4861447  68.6825348  42.3346939  53.4785445
  68.6758558  41.3331885  53.0483801  69.1508511  42.2416728  54.9086344
  69.1542075  43.2357262  55.3557884  68.4782416  41.5934438  55.4703245
  70.1591599  41.8285033  54.9351591  67.2515791  42.8685266  53.4477315
  67.0113331  44.0732418  53.3256651  66.3097387  41.9457415  53.5222169
  66.5826693  40.9735155  53.5418363  64.9013992  42.2648756  53.6141150
  64.7214550  43.2846142  53.9544860  64.1625242  42.0529820  52.3034865
  64.3222054  41.0238560  51.9817711  62.6397250  42.3178676  52.4528657
  62.4792198  43.3470064  52.7741326  62.1464923  42.1558609  51.4944421
  62.2230460  41.6369303  53.1950279  64.7379968  42.8604610  51.2151797
  65.7816104  42.5822244  51.0683562  64.1816632  42.6805307  50.2952788
  64.6773768  43.9172973  51.4750320  64.2894408  41.3241928  54.6426760
  64.5406688  40.1029425  54.6066033  63.5535553  41.8728930  55.6121241
  63.5526153  42.8758221  55.7314215  62.7814672  41.0684511  56.5418779
  62.8053044  40.0353017  56.1952754  63.2994758  41.1134728  57.9811253
  64.3365096  40.7782270  57.9975729  63.2435767  42.1382107  58.3483956
  62.4520726  40.2004212  58.8806700  61.5187427  40.7337011  59.0612488
  62.2527850  39.3139477  58.2785502  63.0548866  39.7886142  60.1929978
  64.1638622  40.2129661  60.5477491  62.3516128  39.0159382  60.8764397
  61.3433822  41.5277265  56.5225707  61.0773229  42.7326147  56.7245901
  60.4233610  40.6082632  56.2525537  60.7024971  39.6635859  56.0294678
  59.0047189  40.9354087  56.2178948  58.8814704  42.0179756  56.1869454
  58.3032279  40.3248415  54.9899635  58.4749861  39.2486132  55.0081865
  56.8124466  40.5979501  54.9705019  56.6398934  41.6740428  54.9518036
  56.3709743  40.1442357  54.0831775  56.3528787  40.1722537  55.8625111
  58.8698636  40.8657034  53.7717868  58.4261534  40.4791120  53.0133221
  58.3792026  40.4314683  57.5088168  58.3265359  39.2249717  57.7349984
  57.9248697  41.3353647  58.3390065  58.0473345  42.3143257  58.1228190
  57.2912088  40.9788516  59.6113046  57.8326020  40.1472459  60.0623305
  57.2966401  42.1624543  60.5974087  56.5986914  42.9348082  60.2742427
  56.9998003  41.7928686  61.5789343  58.6124283  42.8260180  60.7736769
  58.7484466  44.1922896  60.4884490  57.8680079  44.7511370  60.1712469
  59.9698113  44.8321613  60.6028716  60.0800294  45.8813765  60.3288277
  61.0176576  44.1493197  61.0543431  61.9684098  44.6642237  61.1923432
  60.9115935  42.7972670  61.3489289  61.7987190  42.2516718  61.6705412
  59.7006404  42.1427401  61.2387283  59.6208151  41.0930162  61.5212305
  55.8751574  40.4965628  59.4358680  55.4211683  39.5557344  60.0999477
  55.1277458  41.1866906  58.5812192  55.5655055  41.9107455  58.0296665
  53.7088474  40.9404270  58.3926678  53.4472234  39.9795742  58.8358540
  52.8529362  42.0393277  59.0570317  53.0331731  43.0069366  58.5886870
  51.8019270  41.7726159  58.9459263  53.0931767  42.2190290  60.5059327
  53.2505157  43.4457882  61.0886430  53.4293993  43.2851007  62.3910182
  53.5550418  44.1621784  63.0258787  53.4193818  42.0041624  62.6828083
  53.5266210  41.5753562  63.5909520  53.2329522  41.3235264  61.5106634
  53.2180545  40.2336280  61.5097562  53.3657553  40.9254359  56.9136161
  53.8805552  41.7535147  56.1506497  52.5170326  39.9842679  56.5174942
  52.3010093  39.2319505  57.1558139  52.0005404  39.9146306  55.1927578
  51.9411352  40.9023384  54.7355888  52.8399788  38.9826882  54.2951653
  53.8537522  39.3820261  54.2652809  52.8764559  37.5493782  54.7839913
  51.8630167  37.1491797  54.8137045  53.4838112  36.9492271  54.1064672
  53.3088229  37.5169060  55.7840430  52.3450168  39.0271440  52.8676074
  51.3882295  38.5053110  52.8489207  52.1904467  40.0772696  52.6197289
  53.3082941  38.3833718  51.8238339  53.4629870  37.3330503  52.0708050
  52.8709570  38.4614360  50.8284740  54.2652056  38.9050079  51.8416151
  50.5393907  39.5354720  55.2510804  50.1604952  38.7100102  56.0667169
  49.7268678  40.1660620  54.4294431  50.0748064  40.8946355  53.8226329
  48.3285865  39.8400719  54.3702000  48.1986603  38.7633331  54.4790658
  47.7987630  40.3524762  55.1732120  47.7616135  40.2642714  53.0724271
  48.4527491  40.8769878  52.2322222  46.5003240  39.9509583  52.8318678
  45.8996336  39.4661868  53.4832256  45.9576370  40.3019359  51.5127937
  46.2691721  41.3175456  51.2686995  46.4328321  39.3667745  50.4051525
  45.9996256  39.6957226  49.4605762  47.5197636  39.4213916  50.3443508
  46.0376044  38.0177086  50.6662046  46.3477781  37.4503947  49.9565942
  44.4723034  40.2965848  51.4860864  43.8425162  39.6033389  52.2685212
  43.9069780  41.1081630  50.5840836  44.5114135  41.7299595  50.0662745
  42.4517410  41.1188929  50.2741740  42.1070743  40.0849960  50.2551667
  41.5767545  41.9199984  51.2995908  41.9391047  42.9461125  51.2372094
  40.5623332  41.8687720  50.9040842  41.5773850  41.5026991  52.6465440
  41.0040103  42.0767737  53.1596519  42.2465464  41.7981598  48.9279342
  42.9724422  42.7181578  48.5515727  41.1923505  41.4011330  48.2124800
  40.6943360  40.5775800  48.5188155  40.7507832  42.0590372  47.0021799
  39.9783529  41.4670611  46.5112472  40.1685118  43.4337894  47.3478869
  40.9701713  44.1085826  47.6480460  39.6715190  43.8317084  46.4631504
  39.1481641  43.3496597  48.4858508  38.3229415  42.4164795  48.5336861
  39.2009192  44.3019019  49.4126609  38.5481522  44.2890366  50.1832642
  39.8935114  45.0335987  49.3416917  41.8130431  42.2506106  45.9609073
  41.8361855  43.2773458  45.2778251  42.6945713  41.2918360  45.8486163
  42.6925717  40.5001611  46.4757895  43.6879860  41.3429365  44.8284560
  44.0141799  40.3242648  44.6186829  43.2361613  41.7707668  43.9335174
  44.8922499  42.1757507  45.2192041  45.8114402  42.2820816  44.3627580
  44.9823000  42.6282488  46.5048177  44.2004045  42.4889809  47.1287914
  46.1504033  43.3629063  47.0059364  46.9010518  43.4282453  46.2183090
  45.7785005  44.7630461  47.4359141  45.0400843  44.6080447  48.2225623
  46.6560194  45.2562006  47.8540758  45.1850787  45.6272835  46.3537264
  44.2993237  45.1297538  45.9587541  44.8027805  46.9871694  46.8856235
  45.6881646  47.4855322  47.2803744  44.3777652  47.5864757  46.0804560
  44.0659496  46.8729122  47.6806870  46.1107334  45.7832258  45.1760485
  46.3225479  44.8036310  44.7475298  45.6384551  46.4141902  44.4230954
  47.0421066  46.2448815  45.5039464  46.8100063  42.6188183  48.1764142
  46.1408117  42.1644788  49.0961071  48.1312003  42.5412153  48.0857000
  48.5626977  42.8536356  47.2276190  48.9752229  42.0186966  49.1197575
  48.4202439  41.5083877  49.9069565  50.0191097  41.0129293  48.5074451
  50.5782265  41.5134682  47.7169082  50.9709952  40.5435397  49.5748028
  50.4126205  40.0424557  50.3655198  51.6895030  39.8479355  49.1412340
  51.5011515  41.3998374  49.9916842  49.3233379  39.8408007  47.8343878
  48.6838665  40.2091259  47.0321940  50.0701607  39.1630501  47.4208549
  48.7163948  39.3085984  48.5668369  49.6934873  43.1868461  49.8090398
  50.2397218  44.0557102  49.1342859  49.7498932  43.1287074  51.1239818
  49.3294853  42.3512424  51.6127605  50.4136549  44.1584244  51.9079367
  50.7770325  44.9497354  51.2522822  49.4257450  44.7728663  52.9217775
  49.1155224  43.9805599  53.6030350  49.9620269  45.5410582  53.4788978
  48.2157578  45.3778012  52.2752345  47.0774835  44.6146189  52.0622244
  47.0852289  43.5757086  52.3919284  45.9570143  45.1356077  51.4525675
  45.0842349  44.5050573  51.2829676  45.9392834  46.4600549  51.0595301
  44.8582367  47.0480368  50.4672453  44.1187138  46.4463274  50.3547670
  47.0559972  47.2471029  51.2605167  47.0685942  48.2910743  50.9473624
  48.1687241  46.6938220  51.8683645  49.0547669  47.3043356  52.0424372
  51.5862928  43.5145575  52.6646901  51.4420983  42.4150254  53.2012767
  52.7375844  44.2197743  52.7500305  52.7779379  45.1306685  52.3155851
  53.9141282  43.7415348  53.4605097  53.6332295  42.8407001  54.0061211
  55.1170219  43.3971188  52.5068187  55.9596239  43.0685899  53.1152518
  54.7354235  42.2726517  51.4984818  53.8931304  42.6006550  50.8893383
  55.5875291  42.0576268  50.8536721  54.4582254  41.3717665  52.0459007
  55.5299163  44.5165151  51.7271071  56.2630557  44.2604078  51.1627349
  54.4298982  44.7994382  54.4145028  54.7314989  45.9137655  53.9224403
  54.6523618  44.4918389  55.6818822  54.2997862  43.6119353  56.0305361
  55.3306149  45.3797678  56.6120225  55.4057532  46.3772558  56.1790430
  54.5527804  45.4762835  57.9395745  53.4968797  45.6349125  57.7204632
  54.6730304  44.5425982  58.4890031  55.0694328  46.6193848  58.7735779
  56.0623556  46.3273726  59.1155338  55.1515704  47.4882312  58.1205401
  54.1946358  46.9708793  59.9844292  53.3751617  46.1234890  60.4132238
  54.3447765  48.1228897  60.4834090  56.7246284  44.8447566  56.8120333
  56.8692587  43.6881225  57.2351759  57.7412771  45.6441112  56.4626159
  57.5545998  46.5899817  56.1616509  59.1005904  45.1451386  56.3607407
  59.2287902  44.3374730  57.0813934  59.4269124  44.6318367  55.0125556
  60.3653706  44.1056778  55.1873478  58.6306760  43.9069927  54.8431187
  59.5464211  45.3930424  53.9709465  58.8041237  46.1899399  54.0162191
  60.5454859  45.8284816  53.9518600  59.3031666  44.4718420  52.5629251
  59.8022302  43.5028294  52.5559135  58.2606100  44.3451265  52.2711744
  59.9276290  45.3016633  51.6367133  60.9370444  45.2736685  51.6566195
  59.3368111  46.1063842  50.7732995  58.0345922  46.1524421  50.5968754
  57.4329191  45.5493198  51.1394002  57.6420757  46.7907258  49.9196573
  60.0987260  46.8875131  50.0456447  61.1018892  46.8574480  50.1590451
  59.6787505  47.5154731  49.3752825  60.1327741  46.1241224  56.8101731
  59.8573164  47.2976000  57.0177647  61.3646676  45.6215773  56.9260350
  61.4754573  44.6247330  57.0448895  62.5485338  46.4470294  56.9312981
  62.2994189  47.4846572  56.7091060  63.3083205  46.3987146  58.2755312
  63.3746465  45.3549301  58.5824744  64.7052746  46.9900460  58.1870815
  64.6397325  48.0340215  57.8806173  65.1891395  46.9277476  59.1618093
  65.2904511  46.4331500  57.4552775  62.5031795  47.1279947  59.3455207
  61.5321374  46.6466008  59.4614479  63.0410803  47.0926239  60.2928915
  62.3599408  48.1668311  59.0481951  63.4512841  45.9983219  55.8225999
  63.7031403  44.8033638  55.6517039  63.9437635  46.9672633  55.0226263
  63.5945515  47.9105433  55.1141303  64.9637399  46.7015880  54.0117150
  65.1299585  45.6256710  53.9581117  64.5676926  47.2014810  52.6312080
  64.3589693  48.2680139  52.7151206  65.4342846  47.0509291  51.9874282
  63.3640055  46.4961696  52.0321627  62.6993480  45.6923178  52.6701421
  63.0299255  46.7632151  50.8265503  66.2172337  47.3974031  54.4571044
  66.1916382  48.5729224  54.8076285  67.3281886  46.6651988  54.4560711
  67.2823219  45.6793884  54.2411910  68.6432866  47.2512999  54.7704156
  68.5398034  48.0949218  55.4528324  69.5787967  46.2111243  55.4125096
  69.7292745  45.3832871  54.7195874  70.9099636  46.8505051  55.7291084
  70.7603402  47.6781972  56.4223901  71.5697303  46.1113641  56.1835081
  71.3618972  47.2240568  54.8102413  68.9243234  45.6614665  56.6710989
  67.9760475  45.1905035  56.4121224  69.5821251  44.9238880  57.1308537
  68.7452169  46.4756368  57.3733443  69.2527104  47.7510389  53.5000942
  69.4904362  46.9520172  52.5678620  69.4509398  49.0590018  53.3692388
  69.1750089  49.6086045  54.1704244  69.9445557  49.7520790  52.1991413
  70.0467948  49.0515412  51.3703512  68.9869700  50.8466103  51.7906883
  69.0340814  51.5969873  52.5798740  69.2956032  51.2939298  50.8458333
  67.5588189  50.3307487  51.6654559  67.2634558  49.8302692  52.5876174
  66.6416103  51.5012450  51.4130638  66.9360829  52.0019835  50.4907592
  65.6152105  51.1460257  51.3212848  66.7097679  52.2027981  52.2444952
  67.4390256  49.3111493  50.5856006  68.0919784  48.4671778  50.8080063
  66.4071454  48.9653173  50.5245697  67.7301934  49.7539968  49.6331268
  71.3272226  50.3178745  52.4203830  71.5584122  51.0025423  53.3964277
  72.2301392  50.0308004  51.4831744  71.9619070  49.4546857  50.6981631
  73.5981497  50.4840414  51.5635094  73.7340616  51.0827157  52.4641848
  74.5573109  49.3001866  51.6161003  74.3586908  48.7706007  52.5478664
  74.3128094  48.6545636  50.7726017  76.0163038  49.6773324  51.5537408
  76.2206721  50.0275310  50.5419625  76.1736014  50.4935109  52.2588736
  76.9607299  48.5201479  51.8937001  77.9858852  48.8096827  51.6627775
  76.8800016  48.2868673  52.9553792  76.6333766  47.3430319  51.1375289
  75.9745959  46.7105427  51.5688809  77.0945474  47.0493180  49.9186919
  77.9608175  47.8425803  49.2818268  78.2833647  48.6911826  49.7244750
  78.2891245  47.5899821  48.3606817  76.7089830  45.9284896  49.3609978
  76.0781821  45.3132399  49.8546153  77.0443023  45.6847763  48.4399856
  73.8893541  51.3587651  50.3532610  73.7075300  50.9434271  49.1917829
  74.3165728  52.5808511  50.6078431  74.3960371  52.8808741  51.5689731
  74.6396932  53.5309893  49.5626614  73.9144818  53.4808894  48.7504684
  74.6470386  54.9355487  50.1170348  75.3750876  55.0038734  50.9253519
  74.9150774  55.6371160  49.3270609  73.6562613  55.1809703  50.4994323
  75.9983301  53.1679261  48.9740080  77.0108759  53.0667259  49.6968154
  76.0470771  52.9297380  47.6849962  75.1921816  52.8791334  47.1495599
  77.2798848  52.5756190  47.0357458  77.7835812  51.8067290  47.6215761
  77.0450973  52.0358982  45.6148129  76.5317622  52.8761747  45.1473501
  77.9837159  51.8485356  45.0932858  76.1589816  50.7880889  45.5352332
  75.1884550  51.0215824  45.9730228  75.9710865  50.3416541  44.1024340
  76.9412071  50.1075243  43.6640869  75.3381922  49.4545597  44.0777546
  75.4982554  51.1406841  43.5313979  76.6576550  49.6729018  46.4191205
  76.6729027  50.0093976  47.4557677  75.9957248  48.8118330  46.3268699
  77.6653361  49.3901715  46.1145860  78.3075035  53.7259646  47.0687562
  79.4975159  53.4523547  47.2744162  77.9284812  54.9975193  46.9124463
  76.6344667  55.5098389  46.4330195  75.9334255  55.5507882  47.2666648
  76.2459753  54.8412708  45.6647812  76.9636615  56.8535323  45.8992939
  76.1114090  57.5135070  46.0611524  77.1586481  56.7682847  44.8302690
  78.1328852  57.3223592  46.5997361  77.8429031  57.8574241  47.5040120
  78.7308610  57.9776652  45.9664127  78.9354519  56.0810682  46.9674988
  79.7067459  55.8250565  46.2410954  79.5798459  56.3051376  48.3368988
  80.6898455  56.8475684  48.3981415  78.9075745  55.9479060  49.4240868
  78.0224794  55.4672877  49.3485098  79.3953573  56.2833296  50.7440989
  80.3330630  56.8357055  50.6833684  78.3497906  57.1635757  51.4627485
  78.7923672  57.5348884  52.3870607  77.9114710  58.3408205  50.6013836
  77.4683417  57.9702623  49.6770337  77.1757794  58.9345897  51.1438734
  78.7761753  58.9612712  50.3659522  77.1996073  56.3701986  51.7794585
  76.5480163  56.9154133  52.2264153  79.7300252  55.0933302  51.6543169
  80.3741984  55.2930526  52.6886838  79.2430220  53.8929565  51.3371218
  78.7175768  53.7947873  50.4801682  79.4322534  52.7176830  52.1663436
  79.2476448  51.8382219  51.5494424  80.4674245  52.7106683  52.5076217
  78.5040975  52.6750866  53.3866887  78.5374999  51.7086638  54.1806587
  77.6934806  53.7229393  53.5821523  77.6955292  54.4951394  52.9311515
  76.8301621  53.8076825  54.7499454  77.3073914  53.3393208  55.6107524
  76.5690976  55.2735556  55.0755487  76.2084384  55.7548706  54.1665052
  75.7911034  55.3092373  55.8381442  77.8116842  56.0063937  55.5811322
  78.2342845  55.4092175  56.3891485  78.5205739  56.0516206  54.7543723
  77.5241431  57.4448772  56.0960442  77.1344585  58.0315054  55.2641114
  76.7690811  57.3802339  56.8794994  78.7855432  58.1238515  56.6550949
  79.3000807  57.3969452  57.2835525  79.4209290  58.3863491  55.8092350
  78.4980230  59.3121610  57.4289934  77.9096234  59.0690695  58.2130802
  79.3621408  59.7108034  57.7673490  78.0216206  59.9860260  56.8467170
  75.5170953  53.0574750  54.4945415  75.0259569  53.0182716  53.3588236
  74.9699189  52.4789171  55.5400412  75.4039485  52.5900069  56.4452355
  73.7561959  51.6820168  55.4502893  73.3714013  51.7019885  54.4306652
  74.0513774  50.2316611  55.8326898  74.5261930  50.2420617  56.8137816
  73.0967825  49.7094579  55.8971283  74.8935101  49.5640640  54.9073786
  75.0408008  48.6622376  55.2016821  72.6953311  52.2478606  56.4111602
  72.9867601  52.9712632  57.3837654  71.4476072  51.8832619  56.1175843
  71.2959251  51.3152175  55.2963551  70.2991873  52.2926888  56.8871416
  70.5773947  52.4435795  57.9301814  69.7578877  53.6019230  56.3342811
  70.5641953  54.3352268  56.3190231  69.4409729  53.3898456  55.3131601
  68.5865403  54.1555238  57.1219825  68.7625939  54.7166848  58.3656820
  69.7624480  54.7646543  58.7970637  67.6644133  55.2259642  59.0791726
  67.7915069  55.6584822  60.0715824  66.4139888  55.1365407  58.5257324
  65.3343297  55.6129872  59.2546164  65.5871197  55.9715087  60.1085246
  66.2255034  54.6360679  57.2883880  65.2322773  54.6200312  56.8396729
  67.2945249  54.1461862  56.5966569  67.1538210  53.7297953  55.5991996
  69.2451912  51.2072134  56.8433097  68.9648623  50.6275638  55.7866579
  68.6111339  50.9653279  57.9798935  68.9324413  51.4403807  58.8112694
  67.4861417  50.0471965  58.1001150  67.5744539  49.2672760  57.3437922
  67.4476810  49.3881353  59.4795033  67.5914718  50.1830684  60.2112852
  66.4833100  48.9091752  59.6488724  68.5362230  48.3594027  59.6647995
  69.5478232  48.3421963  58.9436935  68.3092388  47.4532787  60.6128957
  68.9941979  46.7333256  60.7934457  67.4530756  47.4897832  61.1474542
  66.1947771  50.8148429  57.8796327  65.7678895  51.5866627  58.7421883
  65.5924300  50.6445831  56.7091462  65.9746809  49.9776018  56.0540740
  64.4114065  51.4104143  56.3097377  64.3475031  52.3463797  56.8647011
  64.5337975  51.7301947  54.8332246  65.4932363  52.2460145  54.7944129
  64.6018345  50.7951316  54.2772317  63.4457103  52.6223740  54.2057350
  62.4762265  52.1398559  54.3297442  63.4226897  53.9805412  54.8757574
  64.3917558  54.4638995  54.7517633  62.6483945  54.5978813  54.4202807
  63.2113292  53.8586405  55.9380979  63.6426503  52.7346410  52.7009617
  63.5866266  51.7431153  52.2516985  62.8634850  53.3689986  52.2783590
  64.6191043  53.1723375  52.4934567  63.1348950  50.6465232  56.5794076
  62.9103107  49.5702662  56.0489863  62.2667095  51.2409113  57.3686133
  62.5312829  52.1152595  57.7994446  60.9394709  50.6923741  57.6667519
  60.9889396  49.6084130  57.7700973  60.4372739  51.2859588  58.9824154
  60.3998624  52.3697717  58.8726462  59.4324159  50.9048095  59.1643098
  61.2678083  50.9534469  60.0671630  60.9170968  51.3449838  60.8704688
  59.9765719  51.0341306  56.5373822  59.7922222  52.1978693  56.2077164
  59.3466925  50.0050087  55.9654005  59.4531458  49.0848383  56.3679592
  58.5027128  50.1501224  54.8019309  58.2215899  51.1827153  54.5949985
  59.2157074  49.5400198  53.5433950  59.4796066  48.5061065  53.7658380
  58.3194967  49.5813602  52.3121833  58.0555376  50.6150615  52.0888275
  58.8486558  49.1502748  51.4623264  57.4121455  49.0083669  52.5032111
  60.5456753  50.2283570  53.2974533  60.3294124  51.2057499  52.8661364
  61.0271683  50.3580057  54.2667083  61.4680149  49.4637873  52.3751666
  60.9873604  49.3341420  51.4054949  62.3974651  50.0188283  52.2480801
  61.6851145  48.4863963  52.8060662  57.1859196  49.4103701  55.0060287
  57.1852515  48.2617004  55.5003469  56.1102068  49.9954258  54.5282821
  56.1469580  50.9844541  54.3268580  54.8357671  49.2928841  54.3357345
  54.9492819  48.2413799  54.5994626  53.7536273  49.9029566  55.2200274
  54.2169738  49.9642678  56.2047356  53.5482851  50.9083497  54.8524415
  52.4461175  49.1215412  55.3210379  52.0341446  49.0564453  54.3139919
  52.5947655  47.7415575  55.8903064  53.0062817  47.8058684  56.8975886
  51.6195084  47.2561512  55.9271190  53.2666664  47.1585534  55.2604208
  51.4342650  49.8837929  56.1691892  51.2333988  50.8529446  55.7125741
  50.5078128  49.3128627  56.2310472  51.8371124  50.0313328  57.1712096
  54.5458284  49.4007788  52.8485115  54.5629122  50.4940762  52.2922787
  54.3450134  48.2558279  52.2143012  54.3355056  47.3878058  52.7305828
  54.1352386  48.2052789  50.7828218  54.0491196  49.2279912  50.4157493
  55.0040676  47.7287788  50.3287477  52.9048105  47.4439167  50.3971780
  52.3805812  46.6015363  51.1302019  52.4178455  47.7479922  49.2092003
  52.8397636  48.5267371  48.7237718  51.2549610  47.1152562  48.6148411
  50.9817989  46.1549504  49.0522133  50.0126552  48.0501603  48.6531001
  49.7763635  48.2434813  49.6994712  50.2348885  49.3562863  47.9398588
  50.4707904  49.1637843  46.8932480  49.3317373  49.9633240  48.0024987
  51.0633567  49.8892634  48.4064180  48.7769233  47.3316869  48.1574999
  48.5814375  46.4656002  48.7897825  47.9231310  48.0082562  48.1948130
  48.9346253  47.0028238  47.1303291  51.5800297  46.6436438  47.2138410
  52.2727589  47.3182750  46.4484294  51.0707176  45.4493299  46.8867167
  50.4450360  45.0080293  47.5454091  51.3183807  44.7776318  45.6042918
  51.8340565  45.4603132  44.9289224  52.1922628  43.5212412  45.7970684
  51.6608501  42.8086131  46.4278306  52.4096583  43.0609589  44.8332327
  53.5199489  43.7783075  46.4612180  53.6195717  43.9930685  47.8136850
  52.7060555  43.9694236  48.4078475  54.8355084  44.2344604  48.4249631
  54.8898178  44.3756865  49.5044104  55.9593452  44.2949983  47.6787024
  56.9151622  44.5233155  48.1502796  55.8978460  44.0685512  46.3235853
  56.8072627  44.0850740  45.7229286  54.6662852  43.8170848  45.7179984
  54.6120308  43.6492638  44.6423625  50.0095900  44.2986314  45.0310445
  49.1820251  43.7272176  45.7233909  49.8296440  44.5350582  43.7405195
  50.4962869  45.1110560  43.2466439  48.7155913  43.9940938  43.0032217
  48.0038600  43.5331239  43.6880900  48.0148522  45.0900042  42.2475484
  47.7176057  45.8660480  42.9528850  48.7073085  45.5091440  41.5175306
  46.7648303  44.5503215  41.5198283  47.0395997  43.6668615  40.9435461
  45.9696677  44.2939856  42.2199072  46.2679906  45.5680820  40.6032805
  46.8643020  45.7623729  39.5546853  45.2317215  46.2381415  40.9644888
  44.8582597  46.9520840  40.3554618  44.7961190  46.0473443  41.8555266
  49.2477583  42.9685148  42.0286326  50.1637022  43.2718892  41.2701269
  48.7208089  41.7521212  42.1153046  48.0548348  41.5506739  42.8474226
  49.1253461  40.6470297  41.2069300  49.9154958  41.0035585  40.5461351
  49.6377380  39.4379708  41.9670519  48.9791001  39.4636315  42.8351744
  49.4986447  38.4975611  41.4337766  51.1062767  39.5536176  42.4317646
  51.7056010  39.7640993  41.5459832  51.3551785  40.6558599  43.4992850
  50.7565029  40.4457935  44.3856023  52.4110933  40.6689358  43.7694217
  51.0727134  41.6268288  43.0924273  51.7332466  38.2695622  42.8683383
  51.7228375  37.5598452  42.0411183  52.7627168  38.4533649  43.1757614
  51.1722174  37.8574106  43.7070732  47.9678306  40.2472837  40.3216210
  46.8295675  40.1656220  40.7814368  48.2607343  40.0794369  39.0432217
  49.1902683  40.3120825  38.7239383  47.2900671  39.5843629  38.0588052
  46.3469344  39.3714826  38.5620764  47.0468024  40.6482666  37.0011208
  47.9927537  40.8318705  36.4916447  46.0003484  40.2455448  35.9893464
  45.0539326  40.0622105  36.4980558  45.8715538  41.0460185  35.2608186
  46.3192357  39.3373367  35.4779077  46.5716345  41.8420063  37.6481339
  46.4142299  42.5221277  36.9891506  47.9092051  38.3184720  37.4600288
  48.9739687  38.3774389  36.8459380  47.2475510  37.1712693  37.6399009
  46.4151241  37.1565978  38.2116959  47.7759288  35.8797433  37.1326145
  47.2551657  35.0588418  37.6255908  47.5758046  35.7466463  35.6115490
  48.1209918  36.5519812  35.1193032  47.9806990  34.7863259  35.2922601
  46.1010745  35.8268230  35.2338295  45.6281356  35.0059074  35.7728353
  45.7177702  36.7757269  35.6090072  45.7909244  35.7061161  33.7601641
  46.5852615  35.1102943  33.0450621  44.7457592  36.2451093  33.2989732
  49.2415898  35.6696286  37.5430580  50.0848868  35.2126739  36.7603035
  49.5542680  36.0756731  38.7797148  48.8619804  36.5674898  39.3264813
  50.8564197  35.8371222  39.3726908  50.7112449  35.8752567  40.4523061
  51.1438154  34.8270476  39.0807110  51.9655630  36.7950710  38.9903998
  53.1164956  36.5458707  39.3714763  51.6200574  37.8229298  38.2309730
  50.6728384  37.9067400  37.8906036  52.5996771  38.8421575  37.8249012
  53.5732269  38.5632073  38.2279978  52.7228102  38.9910256  36.3165376
  51.7363520  39.2495922  35.9316443  53.4139074  39.8116581  36.1240618
  53.2340291  37.7076118  35.6085256  52.6266059  36.8621170  35.9314442
  53.1329042  37.8364192  34.5308965  54.6982026  37.4436656  35.9542082
  55.2550844  38.3134068  35.6055939  54.7498792  37.3917949  37.0417460
  55.2934813  36.2023844  35.3670548  54.6863005  35.3363673  35.6305818
  55.3471810  36.2912095  34.2820084  56.6716492  36.0318325  35.9216812
  56.6220740  35.9490744  36.9270633  57.0891155  35.1972324  35.5353336
  57.2345626  36.8340016  35.6772383  52.2094517  40.2011295  38.4335727
  51.0306931  40.5474986  38.5945931  53.2159200  41.0164719  38.7516804
  54.1714321  40.7460459  38.5673824  52.9748419  42.2842313  39.4331622
  52.1656057  42.2054753  40.1591330  54.2427353  42.8040206  40.1332624
  55.0442038  42.8619517  39.3967894  54.0166074  44.1913587  40.7538228
  53.2155373  44.1341239  41.4907838  54.9330965  44.5265004  41.2394446
  53.7405462  44.8990148  39.9720862  54.7352317  41.8063117  41.1853096
  54.0263525  41.8287137  42.0130107  54.7261742  40.8176099  40.7265218
  56.1281622  42.1098000  41.7045103  56.1378939  43.0982229  42.1638852
  56.4110151  41.3624011  42.4457852  56.8377156  42.0871213  40.8773952
  52.4528178  43.3306356  38.4751623  53.1073531  43.6824434  37.4744671
  51.2689767  43.8200441  38.7828384  50.7283071  43.3340186  39.4839481
  50.6489408  44.8985555  38.0747180  51.2600186  44.9849110  37.1762605
  49.1775526  44.5401538  37.6493357  48.7367030  45.4174141  37.1758738
  49.1343395  43.4051851  36.7146541  49.5746265  42.5273712  37.1876125
  48.0990591  43.1927164  36.4479133  49.6972677  43.6532307  35.8148287
  48.4682698  44.0321238  38.7366123  47.5733425  43.8179936  38.4630181
  50.7209978  46.2454273  38.8197180  50.4439883  47.2927365  38.2319857
  51.0795432  46.2258810  40.0813270  51.1987791  45.3478754  40.5660830
  51.3160589  47.4616083  40.8201418  51.8658803  48.1700968  40.2005939
  50.3676908  47.9049067  41.1237599  52.1343103  47.1503381  42.0586520
  51.9604382  46.1249203  42.6618293  53.0381477  48.0621194  42.3802837
  53.1879485  48.8605319  41.7801198  53.8708068  47.9316166  43.5923059
  53.3246282  47.3656508  44.3469388  55.1788701  47.2075571  43.2921624
  54.9378413  46.1776646  43.0288646  55.6941081  47.6841676  42.4582125
  56.1638384  47.1423721  44.4254224  55.9221119  47.2534252  45.7573134
  54.8888430  47.3822660  46.0795792  57.1110709  47.1728212  46.4370373
  57.2039244  47.2638023  47.4386362  58.1464074  46.9905008  45.5534721
  59.4898915  46.8721776  45.7614702  59.8480100  46.9098865  46.7902694
  60.2984010  46.7151808  44.6807827  61.3725727  46.5999237  44.8255955
  59.7798111  46.6975793  43.3703600  60.4175178  46.5840552  42.4936948
  58.4174693  46.8274651  43.1698914  58.0498511  46.8143756  42.1438378
  57.5813430  46.9772148  44.2731574  54.1359759  49.3427569  44.1109361
  54.7651262  50.1416352  43.4146429  53.6452049  49.6452468  45.3169352
  53.0789215  48.9788019  45.8221813  53.8810579  50.9435042  45.9191537
  54.6128132  51.4911002  45.3252077  52.5953571  51.7638295  45.9866971
  51.8434521  51.1752560  46.5123580  52.8018567  52.6743344  46.5492260
  52.0796820  52.1273680  44.6102681  52.8151915  52.7924468  44.1577233
  52.0233320  51.2034340  44.0347051  50.7359850  52.7966565  44.6144211
  50.8104908  53.7005507  45.2190062  50.4895559  53.0663505  43.5874657
  49.6670557  51.9660698  45.1475456  49.3733017  52.1563360  46.0949667
  49.0509896  50.9931068  44.4730535  49.4065167  50.6898622  43.2175615
  50.1522750  51.2026973  42.7692929  48.9271808  49.9497848  42.7249946
  48.0818797  50.3127001  45.0667258  47.8211941  50.5356843  46.0166843
  47.6080988  49.5740493  44.5667004  54.4517666  50.7280578  47.3285832
  53.8160492  50.0748449  48.1608597  55.6259273  51.3037963  47.5980468
  56.1123639  51.7908843  46.8589770  56.2535195  51.2477386  48.9270925
  55.7347653  50.5308788  49.5635713  57.7015888  50.8058670  48.7770734
  58.0476050  51.2376959  47.8379803  58.2559916  51.2470965  49.6053573
  57.9287566  49.3135331  48.7582271  57.0268698  48.5314406  49.1259125
  59.0589076  48.8871057  48.3747568  56.1837152  52.6199427  49.5655674
  56.5861421  53.6306725  48.9650262  55.7231832  52.6463945  50.7952001
  55.4371726  51.7593927  51.1844625  55.5691138  53.8429256  51.6145877
  55.7319561  54.7310848  51.0040513  54.1577282  53.9100901  52.2107626
  53.9891758  52.9778319  52.7498210  54.1964775  54.7371842  52.9196447
  53.0241405  54.1383611  51.2296610  52.6140726  53.1536220  50.3348123
  53.1468482  52.2032153  50.3035601  51.5337218  53.3744341  49.4845511
  51.2088603  52.5928112  48.7977960  50.8584007  54.5612664  49.5376955
  49.7696126  54.8296870  48.7100671  49.5599237  54.1031714  48.1186237
  51.2422032  55.5681563  50.3894575  50.7088263  56.5184697  50.4121332
  52.3439109  55.3580128  51.2425588  52.6694687  56.1496826  51.9173707
  56.6000926  53.8544876  52.7392495  56.7483534  52.8675899  53.4823145
  57.2925359  54.9716767  52.8705047  57.0863071  55.7332893  52.2400166
  58.3547969  55.1541774  53.8491308  57.9869501  54.8901493  54.8406333
  59.5762261  54.2551735  53.5175232  60.3809139  54.4035416  54.2376370
  59.2684739  53.2095705  53.5276757  60.1663147  54.5200278  52.1474953
  61.1686685  55.4469433  51.9774375  61.5207516  55.9955824  52.8510121
  61.7272670  55.6899743  50.7381617  62.5105266  56.4398501  50.6272951
  61.3061285  55.0047740  49.6763430  61.7700873  55.1858975  48.7067882
  60.2987912  54.0783409  49.7933354  59.9379459  53.5382350  48.9180203
  59.7483160  53.8362004  51.0206439  58.9612293  53.0897227  51.1272529
  58.7683315  56.6231034  53.8621105  58.3596587  57.4206977  53.0074937
  59.6340782  56.9623242  54.8051571  59.8959477  56.2637339  55.4859620
  60.1894519  58.2911023  54.9378291  59.5258813  59.0143916  54.4638820
  60.3506763  58.6671269  56.4061119  59.3609332  58.5504305  56.8475753
  61.0557489  58.0121098  56.9178982  60.7952605  60.0855640  56.5495515
  59.9879759  60.9762820  56.2444169  61.9708300  60.3607659  56.8947894
  61.5437623  58.3555849  54.2143575  62.4796180  57.6196716  54.5408230
  61.7091856  59.2738807  53.2665754  60.9588600  59.9083099  53.0328867
  62.9342985  59.3443349  52.4947059  63.3366316  58.3441614  52.3338323
  62.6477353  59.9806786  51.1335751  61.8579602  59.3633041  50.7055526
  62.2680246  60.9878476  51.3054195  63.8319749  60.0403179  50.1625263
  64.6239210  60.6281349  50.6266312  64.3648904  58.6460306  49.8212204
  63.5735870  58.0577377  49.3566245  65.2033107  58.7359855  49.1305248
  64.6976777  58.1504083  50.7332026  63.4312906  60.7547721  48.8932713
  63.1146675  61.7701478  49.1317279  64.2813452  60.7903743  48.2119189
  62.6083324  60.2200449  48.4190292  64.0352958  60.1110302  53.2279892
  65.2142777  59.7552875  53.1205700  63.7071163  61.1976930  53.9229395
  62.7380242  61.4617714  54.0288750  64.7322143  62.0829066  54.4779035
  65.4191001  62.3880563  53.6884919  64.1055026  63.3211279  55.0784211
  63.6852697  63.9055359  54.2599036  63.3033220  62.9943461  55.7401008
  65.0816712  64.1714768  55.8537743  65.4758887  63.5425211  56.6519648
  65.8855500  64.4288750  55.1641170  64.5099684  65.4219787  56.4413226
  65.2546990  65.8918861  57.0837105  64.2396599  66.1071652  55.6378599
  63.3500131  65.1470101  57.2147111  63.2148674  64.2156295  57.5812699
  62.4576378  66.0472519  57.4724609  62.6612437  67.3307262  57.1062051
  63.5137815  67.5874273  56.6293574  61.9600960  68.0283375  57.3107291
  61.3550325  65.7054476  58.0867804  61.2077357  64.7430207  58.3553659
  60.6558557  66.4054693  58.2898081  65.5977594  61.3816423  55.5011538
  66.8190513  61.6020541  55.5076904  65.0402612  60.5937244  56.4093404
  64.0463446  60.4170962  56.4414596  65.8805770  59.9809205  57.4202928
  66.4283728  60.7519720  57.9620478  65.0192878  59.1829947  58.4308656
  64.5733626  58.4475333  57.7612788  65.8057911  58.7091160  59.0181913
  63.9665862  59.7239855  59.3504728  64.4909897  60.2675732  60.1363570
  63.3047349  60.4062290  58.8169976  63.1302720  58.5816931  59.9823689
  63.3543486  58.2971295  61.2208043  62.3243544  57.9926070  59.1871831
  66.9110505  59.0409240  56.7593154  68.0375841  58.9268348  57.2022360
  66.4878231  58.3208812  55.7595825  65.5033379  58.3349062  55.5344348
  67.3657789  57.4481289  54.9788571  67.8371363  56.6940742  55.6091926
  66.5057628  56.7468674  53.9449937  65.7133144  56.1322008  54.3719712
  66.0640175  57.5796545  53.3977947  67.1925306  55.9176107  52.9601011
  68.4093016  55.3033274  53.1590767  68.9219295  55.4553662  54.1089171
  68.9684903  54.5259001  52.2068383  69.9598491  54.0960879  52.3502601
  68.2741589  54.2789586  51.0481754  68.7148880  53.6476294  50.2766308
  67.0312738  54.8233174  50.8603636  66.4792519  54.6133809  49.9442311
  66.4849769  55.6257659  51.8160283  65.4857875  56.0380501  51.6755215
  68.4866241  58.2792957  54.3436424  69.6709114  57.9705807  54.4851475
  68.1217683  59.3382069  53.6345576  67.1470001  59.5821876  53.5325791
  69.1201436  60.1899249  52.9913577  69.6398823  59.6282721  52.2151380
  68.4603039  61.3918581  52.3576534  67.8255269  61.8247293  53.1308156
  69.2680972  62.0845521  52.1215497  67.6583581  61.1421604  51.1471295
  68.2600750  60.5871185  50.4274309  66.8088408  60.5330922  51.4560880
  67.1480472  62.4420066  50.4954481  67.4795567  63.4836376  50.9458816
  66.4346924  62.3699890  49.5079363  70.1442516  60.7141048  53.9649143
  71.3354345  60.7874938  53.6308166  69.6893987  61.1630040  55.1106788
  68.6928487  61.1810058  55.2739684  70.5779203  61.7326911  56.1424026
  71.2357364  62.4706447  55.6832713  69.7666524  62.4262240  57.2758476
  69.0035113  61.7332141  57.6300397  70.4471720  62.6651786  58.0930953
  69.1081256  63.6902670  56.7848620  69.9423950  64.3106347  56.4573880
  68.4845875  63.4384922  55.9270107  68.2766887  64.4563666  57.8104122
  67.9490727  63.9126837  58.8713385  67.9211648  65.5794271  57.5077592
  71.4955278  60.6701823  56.7009099  72.6733813  60.9400375  56.9814547
  71.0061319  59.4747397  56.8697816  70.0427554  59.2622457  56.6533300
  71.8342679  58.4218949  57.4264338  72.2953568  58.8101657  58.3345869
  70.9857389  57.2393509  57.7876723  70.5244383  56.8338625  56.8871830
  71.6071185  56.4742330  58.2530562  70.2080342  57.5492098  58.4857140
  72.9519463  57.9608786  56.4832663  74.0334694  57.5530399  56.9280073
  72.7150570  57.9887488  55.1864503  71.8069734  58.2833617  54.8567734
  73.6652840  57.4512460  54.2130864  74.5540052  57.0240007  54.6775594
  73.0378147  56.3953050  53.2902928  73.8140561  55.9681802  52.6553810
  72.3962562  55.2925362  54.1172405  71.6195399  55.7188526  54.7521161
  71.9547021  54.5496550  53.4529679  73.1539214  54.8173689  54.7403465
  72.0556784  56.9624752  52.2852155  72.5642954  57.6856585  51.6477073
  71.6564004  56.1551955  51.6712316  71.2389035  57.4551098  52.8127482
  74.3996024  58.5015730  53.3979056  75.2365431  58.1568759  52.5588590
  74.0944443  59.7743689  53.6142021  73.2666296  59.9933183  54.1498170
  74.8340816  60.8836471  52.9865059  74.3853605  61.8259395  53.3008839
  76.3372590  60.8952699  53.3765784  76.7147715  59.8894952  53.1921849
  76.8616639  61.6030069  52.7345442  76.5675187  61.2609274  54.8195895
  75.6634163  61.7679801  55.5481692  77.7146650  61.0773107  55.3109359
  74.6584513  60.9148979  51.4987242  75.5986978  61.1659448  50.7466378
  73.4424848  60.6975833  51.0310194  72.6785566  60.4670047  51.6501693
  73.1665711  60.8162895  49.6163733  73.9478287  61.3646419  49.0900224
  73.1305055  59.4278982  49.0975209  74.0089046  58.9498426  49.5310841
  72.2301004  59.0034952  49.5416526  73.1145677  59.1930012  47.6075862
  72.1704617  59.5728018  47.2170530  74.2664131  59.8799773  46.9006287
  75.2109244  59.5003325  47.2903300  74.2084265  59.6792688  45.8308369
  74.2092017  60.9549446  47.0717204  73.2252656  57.7357466  47.4328258
  72.3822901  57.2457787  47.9200867  73.2196280  57.4953166  46.3696876
  74.1559731  57.3854292  47.8790996  71.7941431  61.4940036  49.3968446
  70.7950705  60.9241580  49.8941764  71.7170232  62.6377976  48.7072260
  72.7406283  63.4246677  47.9605117  73.3684049  62.7410934  47.3889150
  73.3568806  63.9740052  48.6722424  71.9079636  64.3604353  47.0576654
  71.5662877  63.8680572  46.1472147  72.4429734  65.2737242  46.7973399
  70.7915458  64.6480138  47.9615425  69.9743367  65.0387209  47.3552289
  70.9874089  65.3297900  48.7891405  70.4250420  63.2704020  48.4986708
  69.8669683  63.2380163  49.4344076  69.6476615  62.5751531  47.4327729
  69.7554227  62.8491793  46.2596185  68.6502384  61.8631942  47.8578960
  68.3868887  61.9481666  48.8292487  67.9362038  60.9290928  47.0399956
  68.5778325  60.4640132  46.2915887  67.4375197  59.8546035  47.9855821
  66.7546904  60.3416929  48.6817052  66.8821447  59.1518854  47.3644171
  68.5244982  59.0935374  48.7781659  69.0831452  59.8289617  49.3571007
  67.9634200  58.0396385  49.7089195  67.4049906  57.3035543  49.1306154
  68.7809378  57.5447820  50.2332118  67.2997751  58.5106851  50.4340340
  69.3590535  58.4439311  47.7686650  69.7970759  59.2001339  47.1172103
  70.1544362  57.8834500  48.2599170  68.7487221  57.7632180  47.1751803
  66.7780078  61.4821938  46.2286347  66.0760806  60.6848188  45.6053552
  66.5351920  62.7787147  46.2764362  66.9427540  63.3567492  46.9974554
  65.6309675  63.4269633  45.2727880  64.9453323  62.6781671  44.8761673
  64.8146521  64.5587021  45.8857533  65.4966693  65.3606365  46.1683360
  64.1157526  64.9249381  45.1337488  64.0609336  64.1054761  47.0826474
  63.3863221  63.3040329  46.7815010  64.7734572  63.7242870  47.8141575
  63.2382411  65.2652378  47.7157633  62.6706221  65.7897734  46.9471476
  62.5541564  64.8759381  48.4698013  64.1376654  66.2018451  48.3466734
  65.1235284  65.9823964  48.3506589  63.7485545  67.3457039  48.8596265
  62.4665811  67.6265144  48.8709212  61.8046845  66.9660627  48.4890882
  62.1478762  68.5017628  49.2613915  64.6393980  68.1430825  49.3995657
  65.6120034  67.8712820  49.4157973  64.3485085  69.0250731  49.7965223
  66.3528015  64.0343316  44.0566961  65.7397285  64.7434638  43.2010613
  67.6592520  63.7925927  43.9761824  68.0985157  63.2383534  44.6972687
  68.4907756  64.2952013  42.8864971  68.5743398  63.4695414  42.1798134
  67.9640010  65.1246689  42.4147011  69.8891909  64.7551489  43.2791774
  70.2388227  65.9453219  43.1043695  70.6953359  63.9201202  43.7498729
  61.5235319  56.4905012   2.0406415  95.6777583  53.1680026  39.2529275
  61.5384331   5.1176906  26.5990084  46.2416051  64.1320709  41.2710047
  99.8925151  52.3793661  47.5793552  80.0665652  46.1474264  75.8574540
  57.8568915  72.1399003  91.5605444  24.5842308  26.0004856  22.7185035
  76.7686167  29.3330185  37.4410038  40.2538859  36.8349736  97.5410528
   4.9606812  50.0148208  72.8344113 100.9944362  41.4148151  27.3846536
  55.5541266 103.0062536  83.5599379  33.5601913  83.3578265  41.9159926
  34.1388689  85.9836762  42.1286324  11.8814400  75.6932309  81.7424010
  66.2515881  60.6327335  31.6801826  78.7597313  41.1382834  54.5464747
  69.0364570  36.4927160   8.1260564  40.6438557  75.7771033   1.0962025
  38.2500868  55.0135371  91.3961258  57.1592874  56.4392218  57.1344565
  57.2670636  56.3308063  58.0793703  56.3772944  56.9836066  57.0430021
  48.6117665  59.0663348  61.6929326  48.7195428  58.9579194  62.6378465
  47.8297735  59.6107197  61.6014782  58.5094438  48.0991588  59.4221777
  58.6172201  47.9907434  60.3670915  57.7274508  48.6435437  59.3307233
  53.9644132  59.3814348  51.5203690  54.0721894  59.2730194  52.4652828
  53.1824202  59.9258197  51.4289146  58.6484505  51.0791860  65.8242268
  58.7562267  50.9707705  66.7691407  57.8664575  51.6235709  65.7327724
  61.1423360  63.6670217  50.5278277  61.2501123  63.5586062  51.4727415
  60.3603430  64.2114065  50.4363733  59.4014466  50.5529010  68.4505444
  59.5092228  50.4444855  69.3954583  58.6194536  51.0972858  68.3590900
  48.5706443  40.3811827  57.7860778  48.6784205  40.2727673  58.7309916
  47.7886513  40.9255676  57.6946234  49.4557882  54.0532867  79.3760782
  49.5635645  53.9448713  80.3209920  48.6737952  54.5976716  79.2846238
  48.0306797  58.7791745  47.0012607  48.1384559  58.6707590  47.9461746
  47.2486866  59.3235593  46.9098063  52.0076885  62.4363790  50.1227605
  52.1154648  62.3279636  51.0676744  51.2256955  62.9807639  50.0313061
  55.2406385  58.6418431  65.6543198  55.3484147  58.5334277  66.5992336
  54.4586455  59.1862280  65.5628654  43.7292410  77.5828834  58.8058672
  43.8370173  77.4744679  59.7507811  42.9472480  78.1272683  58.7144128
  51.5648082  55.2500498  78.0086094  51.6725844  55.1416344  78.9535232
  50.7828152  55.7944347  77.9171550  44.6670056  75.4469805  53.5833264
  44.7747818  75.3385651  54.5282403  43.8850126  75.9913654  53.4918720
  56.0061501  56.0426485  74.5570042  56.1139263  55.9342331  75.5019181
  55.2241571  56.5870334  74.4655498  63.5942688  73.2886262  67.7434961
  63.7020450  73.1802107  68.6884099  62.8122758  73.8330110  67.6520417
  42.2223238  66.7647611  70.4669202  42.3301000  66.6563456  71.4118340
  41.4403308  67.3091460  70.3754658  43.0625194  70.1868643  65.1760046
  43.1702957  70.0784488  66.1209185  42.2805264  70.7312491  65.0845503
  48.5613090  68.7000366  48.2431220  48.6690852  68.5916212  49.1880359
  47.7793160  69.2444215  48.1516676  36.8703535  58.7789122  56.0682102
  36.9781298  58.6704967  57.0131241  36.0883605  59.3232970  55.9767558
  36.9635890  56.6733015  52.3555708  37.0713653  56.5648860  53.3004846
  36.1815960  57.2176863  52.2641164  60.8050047  55.5161192  59.3488350
  60.9127809  55.4077037  60.2937488  60.0230117  56.0605041  59.2573806
  48.9501046  62.7748559  47.9433938  49.0578809  62.6664404  48.8883077
  48.1681116  63.3192407  47.8519395  48.8030631  51.4061268  79.0748803
  48.9108393  51.2977113  80.0197942  48.0210701  51.9505116  78.9834260
  39.4376053  42.2778201  66.9802459  39.5453815  42.1694046  67.9251598
  38.6556123  42.8222049  66.8887915  61.7384056  68.5838899  60.6333219
  61.8461818  68.4754744  61.5782357  60.9564126  69.1282747  60.5418675
  42.3023012  71.7787432  54.2000206  42.4100774  71.6703277  55.1449345
  41.5203082  72.3231280  54.1085662  32.7124008  51.0671374  59.0157497
  32.8201770  50.9587219  59.9606636  31.9304078  51.6115222  58.9242953
  61.0602337  71.1685711  56.4274454  61.1680100  71.0601556  57.3723593
  60.2782407  71.7129559  56.3359910  42.0002545  76.1653336  53.8655758
  42.1080308  76.0569181  54.8104897  41.2182615  76.7097184  53.7741214
  44.2821609  68.5490179  71.1062893  44.3899372  68.4406024  72.0512031
  43.5001679  69.0934027  71.0148349  38.3414531  50.1605712  68.2740998
  38.4492293  50.0521557  69.2190136  37.5594601  50.7049561  68.1826454
  61.3502045  56.6588967  62.7657402  61.4579807  56.5504813  63.7106541
  60.5682115  57.2032816  62.6742858  35.8336939  55.4561696  56.6733564
  35.9414701  55.3477542  57.6182703  35.0517009  56.0005545  56.5819020
  60.8689008  53.0359540  64.1483332  60.9766771  52.9275385  65.0932471
  60.0869078  53.5803388  64.0568788  38.0858161  56.2984817  55.0665568
  38.1935923  56.1900663  56.0114707  37.3038231  56.8428666  54.9751024
  41.3279009  72.3185582  64.5446531  41.4356771  72.2101427  65.4895670
  40.5459079  72.8629430  64.4531988  47.5152926  59.1467213  39.8339241
  47.6230688  59.0383058  40.7788379  46.7332996  59.6911062  39.7424697
  61.4271087  52.2700266  69.1448633  61.5348849  52.1616111  70.0897771
  60.6451157  52.8144115  69.0534089  39.8454932  41.6867723  59.4324967
  39.9532694  41.5783568  60.3774105  39.0635002  42.2311572  59.3410423
  53.3228435  58.3777534  68.1635501  53.4306197  58.2693379  69.1084640
  52.5408505  58.9221383  68.0720957  38.2068002  68.0966548  60.4837650
  38.3145765  67.9882393  61.4286789  37.4248072  68.6410397  60.3923106
  59.4451362  56.4188302  71.5943711  59.5529125  56.3104147  72.5392850
  58.6631432  56.9632151  71.5029168  52.0152384  61.0722638  47.1320189
  52.1230146  60.9638484  48.0769327  51.2332454  61.6166487  47.0405645
  53.7754424  80.0549352  55.4445603  53.8832187  79.9465197  56.3894741
  52.9934494  80.5993200  55.3531059  46.5156810  75.3919977  68.0121478
  46.6234572  75.2835822  68.9570616  45.7336880  75.9363825  67.9206934
  40.1269413  73.3945099  62.2573830  40.2347175  73.2860945  63.2022969
  39.3449483  73.9388948  62.1659286  56.0691185  69.2426240  49.0850394
  56.1768948  69.1342085  50.0299533  55.2871255  69.7870088  48.9935850
  38.3744567  44.4575190  52.1697307  38.4822330  44.3491035  53.1146446
  37.5924637  45.0019039  52.0782763  36.5212920  69.4532592  55.7474051
  36.6290683  69.3448438  56.6923189  35.7392990  69.9976441  55.6559507
  37.5064851  40.8548297  61.9529813  37.6142613  40.7464142  62.8978951
  36.7244921  41.3992145  61.8615269  53.3856637  62.3795136  76.0094345
  53.4934399  62.2710982  76.9543484  52.6036707  62.9238985  75.9179801
  31.6784784  49.5237357  57.0349292  31.7862546  49.4153203  57.9798431
  30.8964854  50.0681206  56.9434748  36.6824469  62.7471309  55.0872291
  36.7902231  62.6387155  56.0321430  35.9004539  63.2915158  54.9957747
  47.3821271  75.3819935  51.2097903  47.4899034  75.2735780  52.1547042
  46.6001341  75.9263783  51.1183359  35.1037511  47.5609369  69.2365608
  35.2115273  47.4525215  70.1814747  34.3217581  48.1053218  69.1451064
  59.1907612  73.2477959  56.2319292  59.2985375  73.1393805  57.1768430
  58.4087682  73.7921808  56.1404748  49.8742866  66.0536411  47.4777236
  49.9820629  65.9452257  48.4226375  49.0922936  66.5980260  47.3862692
  43.7698362  68.3361948  73.9372058  43.8776124  68.2277793  74.8821197
  42.9878431  68.8805797  73.8457515  35.2128587  45.7643285  71.4005624
  35.3206350  45.6559130  72.3454762  34.4308657  46.3087133  71.3091080
  46.9624794  77.6134777  66.2417279  47.0702556  77.5050623  67.1866418
  46.1804864  78.1578626  66.1502735  45.8458064  55.0721393  33.6419231
  45.9535826  54.9637239  34.5868370  45.0638134  55.6165242  33.5504688
  43.0167426  58.7510680  37.8248392  43.1245189  58.6426526  38.7697531
  42.2347496  59.2954529  37.7333848  65.8228235  67.9057041  53.3410218
  65.9305998  67.7972886  54.2859357  65.0408305  68.4500889  53.2495674
  30.3226728  51.1251119  60.4275089  30.4304490  51.0166964  61.3724227
  29.5406798  51.6694967  60.3360545  35.9206717  65.5789938  55.3784854
  36.0284480  65.4705783  56.3233993  35.1386787  66.1233786  55.2870311
  32.7267518  53.6532924  58.0678835  32.8345281  53.5448769  59.0127974
  31.9447588  54.1976772  57.9764291  38.1276934  70.5110459  64.3375994
  38.2354696  70.4026305  65.2825133  37.3457004  71.0554308  64.2461450
  37.2488752  61.1703835  58.3781046  37.3566514  61.0619681  59.3230185
  36.4668822  61.7147684  58.2866502  46.1602389  60.4884643  45.6379645
  46.2680151  60.3800488  46.5828784  45.3782459  61.0328491  45.5465101
  55.5011752  55.0555113  76.9558461  55.6089514  54.9470958  77.9007600
  54.7191822  55.5998962  76.8643917  62.8932026  70.5122390  53.7756868
  63.0009788  70.4038236  54.7206007  62.1112096  71.0566239  53.6842325
  56.4873683  59.0699726  71.7689190  56.5951446  58.9615571  72.7138329
  55.7053753  59.6143574  71.6774646  55.0261175  76.0081302  51.1300069
  55.1338938  75.8997148  52.0749208  54.2441245  76.5525151  51.0385525
  39.2900044  69.1213342  52.8620310  39.3977806  69.0129187  53.8069448
  38.5080114  69.6657190  52.7705766  40.7972080  38.8753278  57.0412117
  40.9049842  38.7669123  57.9861256  40.0152150  39.4197126  56.9497573
  40.7142414  39.3962079  68.6272626  40.8220176  39.2877925  69.5721764
  39.9322484  39.9405928  68.5358082  40.1404867  60.8489070  77.6261697
  40.2482630  60.7404915  78.5710836  39.3584937  61.3932919  77.5347153
  39.5735513  52.9615761  45.5084130  39.6813275  52.8531606  46.4533268
  38.7915583  53.5059609  45.4169586  33.0519492  56.9907792  63.2224433
  33.1597254  56.8823637  64.1673571  32.2699562  57.5351640  63.1309889
  35.3289724  67.3434977  67.1389121  35.4367486  67.2350822  68.0838260
  34.5469794  67.8878826  67.0474577  43.0175117  64.0597560  75.6697898
  43.1252879  63.9513406  76.6147037  42.2355187  64.6041409  75.5783354
  64.1290328  69.8207269  59.7377412  64.2368090  69.7123115  60.6826551
  63.3470398  70.3651118  59.6462869  64.8118768  62.3363663  60.8767742
  64.9196530  62.2279508  61.8216881  64.0298838  62.8807512  60.7853198
  34.8547530  57.3743214  70.6745487  34.9625292  57.2659060  71.6194625
  34.0727600  57.9187063  70.5830943  62.2231071  61.0300297  63.9406238
  62.3308834  60.9216143  64.8855377  61.4411141  61.5744146  63.8491695
  37.9223401  70.2790185  59.1913869  38.0301164  70.1706030  60.1363008
  37.1403471  70.8234033  59.0999325  54.5298686  60.0523391  70.0667419
  54.6376448  59.9439236  71.0116558  53.7478756  60.5967239  69.9752875
  63.5323201  65.0960246  65.9870062  63.6400963  64.9876092  66.9319201
  62.7503271  65.6404095  65.8955518  33.8226269  57.7249950  67.0327351
  33.9304032  57.6165795  67.9776490  33.0406339  58.2693798  66.9412807
  37.5856132  55.5835789  48.1065703  37.6933894  55.4751634  49.0514842
  36.8036202  56.1279637  48.0151160  36.2038099  53.4468869  52.3607510
  36.3115862  53.3384715  53.3056649  35.4218169  53.9912718  52.2692967
  42.0112090  37.1904798  55.1524465  42.1189852  37.0820644  56.0973604
  41.2292160  37.7348647  55.0609921  38.1675570  59.4041746  76.2560918
  38.2753332  59.2957592  77.2010057  37.3855640  59.9485595  76.1646374
  47.7161982  80.2603546  54.5435037  47.8239744  80.1519392  55.4884176
  46.9342052  80.8047395  54.4520493  51.1175734  46.2929149  68.2876800
  51.2253496  46.1844994  69.2325938  50.3355804  46.8372998  68.1962256
  44.6909612  79.2732657  54.5443412  44.7987374  79.1648503  55.4892551
  43.9089682  79.8176506  54.4528868  51.2996540  80.9672760  55.8944313
  51.4074303  80.8588605  56.8393452  50.5176610  81.5116608  55.8029769
  41.9121516  44.3110971  73.5117540  42.0199279  44.2026816  74.4566679
  41.1301586  44.8554819  73.4202996  34.1575949  63.0372747  62.4448165
  34.2653711  62.9288592  63.3897303  33.3756019  63.5816595  62.3533621
  29.4844532  49.3130272  64.9537426  29.5922295  49.2046118  65.8986564
  28.7024602  49.8574121  64.8622882  33.3538981  66.0796290  65.4140065
  33.4616743  65.9712136  66.3589204  32.5719051  66.6240139  65.3225521
  43.5036575  72.4040802  68.4241550  43.6114337  72.2956648  69.3690688
  42.7216645  72.9484651  68.3327006  47.9634118  39.7107029  64.3254447
  48.0711881  39.6022875  65.2703585  47.1814188  40.2550878  64.2339903
  44.7097585  78.3521567  64.8866457  44.8175347  78.2437412  65.8315595
  43.9277654  78.8965415  64.7951913  55.6201245  58.8076963  74.1757533
  55.7279007  58.6992808  75.1206672  54.8381314  59.3520811  74.0842989
  42.4909554  53.8155178  81.0012147  42.5987316  53.7071024  81.9461286
  41.7089624  54.3599027  80.9097603  38.8220641  52.1834079  74.9984078
  38.9298403  52.0749924  75.9433217  38.0400711  52.7277927  74.9069534
  41.0300186  69.7134187  67.9680683  41.1377948  69.6050032  68.9129822
  40.2480256  70.2578036  67.8766139  54.8170112  67.3410154  47.2581902
  54.9247875  67.2325999  48.2031040  54.0350182  67.8854002  47.1667358
  34.4923288  65.5930989  68.7910649  34.6001050  65.4846835  69.7359787
  33.7103358  66.1374838  68.6996105  42.9552122  35.9611266  58.3651525
  43.0629885  35.8527111  59.3100663  42.1732192  36.5055115  58.2736981
  51.9043694  82.6576711  57.4436881  52.0121456  82.5492557  58.3886020
  51.1223764  83.2020560  57.3522337  41.8230538  41.7034796  61.2156121
  41.9308301  41.5950642  62.1605259  41.0410608  42.2478645  61.1241577
  41.6400195  40.6717505  65.5013739  41.7477957  40.5633351  66.4462878
  40.8580265  41.2161354  65.4099195  45.5548684  70.1180019  50.4667781
  45.6626446  70.0095865  51.4116919  44.7728754  70.6623868  50.3753237
  44.3900166  57.3366628  77.7261683  44.4977928  57.2282473  78.6710822
  43.6080236  57.8810476  77.6347139  34.1963926  61.9635921  58.6217687
  34.3041688  61.8551766  59.5666825  33.4143996  62.5079770  58.5303143
  34.2623913  50.9171463  66.5813478  34.3701676  50.8087308  67.5262616
  33.4803983  51.4615311  66.4898934  31.4654030  56.1146972  60.7592367
  31.5731792  56.0062818  61.7041506  30.6834100  56.6590821  60.6677823
  43.8894759  74.9359097  68.4062467  43.9972522  74.8274942  69.3511605
  43.1074829  75.4802946  68.3147923  53.1870900  60.4935346  74.0783952
  53.2948663  60.3851191  75.0233091  52.4050970  61.0379194  73.9869409
  55.4146645  77.5772493  60.8882333  55.5224407  77.4688338  61.8331472
  54.6326715  78.1216341  60.7967790  39.0683878  41.4938395  53.5749585
  39.1761640  41.3854240  54.5198724  38.2863948  42.0382243  53.4835041
  62.1286405  61.9830422  60.8961238  62.2364168  61.8746267  61.8410377
  61.3466475  62.5274271  60.8046695  51.8492540  49.2688215  76.6020760
  51.9570302  49.1604060  77.5469899  51.0672610  49.8132063  76.5106216
  45.9920330  49.1210640  43.1008311  46.0998092  49.0126485  44.0457450
  45.2100400  49.6654489  43.0093767  61.8575546  58.0133164  65.0807349
  61.9653308  57.9049010  66.0256487  61.0755616  58.5577013  64.9892805
  45.0876778  45.8991936  76.8235864  45.1954540  45.7907782  77.7685003
  44.3056848  46.4435785  76.7321321  42.4213410  47.0431973  77.3400054
  42.5291172  46.9347819  78.2849193  41.6393480  47.5875822  77.2485510
  45.6407959  63.5246775  46.5814525  45.7485721  63.4162620  47.5263663
  44.8588029  64.0690623  46.4899981  37.1206265  39.9295408  64.6036487
  37.2284027  39.8211253  65.5485625  36.3386335  40.4739257  64.5121943
  58.7845121  68.5128960  48.6561424  58.8922884  68.4044805  49.6010563
  58.0025191  69.0572808  48.5646880  37.1494218  44.7453378  73.8505471
  37.2571981  44.6369223  74.7954610  36.3674288  45.2897226  73.7590928
  34.6104865  49.2898077  38.3717523  34.7182627  49.1813922  39.3166662
  33.8284934  49.8341925  38.2802979  62.0308119  53.4689117  66.4673109
  62.1385882  53.3604963  67.4122247  61.2488189  54.0132966  66.3758565
  34.3988694  54.2872781  54.5289947  34.5066457  54.1788626  55.4739086
  33.6168764  54.8316629  54.4375403  61.3744391  54.6324803  70.8806522
  61.4822153  54.5240649  71.8255661  60.5924461  55.1768652  70.7891978
  47.1185620  44.5375565  73.3622674  47.2263382  44.4291410  74.3071812
  46.3365690  45.0819413  73.2708130  44.5377478  44.0476562  74.5708805
  44.6455240  43.9392407  75.5157943  43.7557548  44.5920411  74.4794261
  52.8873995  57.0497425  79.5189161  52.9951758  56.9413270  80.4638300
  52.1054065  57.5941273  79.4274617  45.0817699  54.3819650  80.1456775
  45.1895461  54.2735495  81.0905913  44.2997769  54.9263499  80.0542231
  54.4263863  62.9898331  51.7327778  54.5341625  62.8814177  52.6776917
  53.6443933  63.5342180  51.6413234  48.9144554  54.2939554  32.1227690
  49.0222316  54.1855399  33.0676829  48.1324624  54.8383403  32.0313146
  40.8304196  70.9626265  52.0932705  40.9381958  70.8542110  53.0381844
  40.0484265  71.5070114  52.0018161  50.4987154  73.8722180  50.7124921
  50.6064916  73.7638025  51.6574060  49.7167224  74.4166028  50.6210377
  41.6774200  65.8062817  73.8562167  41.7851962  65.6978662  74.8011306
  40.8954270  66.3506665  73.7647623  55.5531451  71.6638743  48.1432861
  55.6609213  71.5554588  49.0881999  54.7711521  72.2082591  48.0518317
  43.3067355  70.7966333  70.2000576  43.4145117  70.6882179  71.1449715
  42.5247425  71.3410182  70.1086032  46.3202234  42.7854297  68.2754129
  46.4279996  42.6770142  69.2203268  45.5382304  43.3298145  68.1839585
  42.4988207  39.6008984  59.9552010  42.6065970  39.4924829  60.9001149
  41.7168277  40.1452832  59.8637466  49.4446608  55.1176148  81.7706153
  49.5524371  55.0091994  82.7155291  48.6626678  55.6619997  81.6791609
  35.8528124  51.0246730  68.9944257  35.9605886  50.9162576  69.9393395
  35.0708194  51.5690579  68.9029713  41.0793051  47.3629130  40.1236338
  41.1870813  47.2544976  41.0685477  40.2973121  47.9072979  40.0321794
  46.2969739  41.8162376  65.6890599  46.4047501  41.7078221  66.6339737
  45.5149809  42.3606224  65.5976055  49.7807012  61.0283893  36.3968568
  49.8884774  60.9199738  37.3417707  48.9987082  61.5727741  36.3054024
  45.0057570  78.3918043  60.9816861  45.1135333  78.2833888  61.9266000
  44.2237640  78.9361892  60.8902317  52.4462160  44.1676080  78.1479232
  52.5539922  44.0591926  79.0928371  51.6642230  44.7119929  78.0564689
  32.9004144  53.6042092  66.2406724  33.0081906  53.4957937  67.1855862
  32.1184213  54.1485940  66.1492180  29.8108021  51.5598061  66.4689225
  29.9185783  51.4513906  67.4138363  29.0288091  52.1041910  66.3774681
  59.4468498  75.0852645  54.0917419  59.5546261  74.9768491  55.0366557
  58.6648568  75.6296494  54.0002875  44.5928460  75.1985112  50.6417778
  44.7006223  75.0900957  51.5866917  43.8108530  75.7428960  50.5503234
  32.6319465  59.5747855  64.0348337  32.7397228  59.4663700  64.9797475
  31.8499535  60.1191704  63.9433793  43.2650234  51.3468579  38.4300279
  43.3727997  51.2384424  39.3749418  42.4830304  51.8912427  38.3385735
  30.6549607  46.8382919  57.3915887  30.7627369  46.7298764  58.3365025
  29.8729677  47.3826768  57.3001343  43.4774252  38.7878763  68.4033657
  43.5852014  38.6794608  69.3482795  42.6954322  39.3322611  68.3119113
  37.4010166  38.7279765  54.0100105  37.5087928  38.6195610  54.9549244
  36.6190236  39.2723614  53.9185562  63.6617587  71.4021999  57.6263763
  63.7695350  71.2937845  58.5712901  62.8797657  71.9465848  57.5349219
  62.4262486  56.1351749  67.5375124  62.5340248  56.0267595  68.4824263
  61.6442556  56.6795598  67.4460580  55.4911499  57.7355323  77.9685206
  55.5989262  57.6271169  78.9134345  54.7091569  58.2799172  77.8770663
  59.2108245  73.4008549  68.7942497  59.3186007  73.2924394  69.7391636
  58.4288315  73.9452398  68.7027953  55.9315603  71.0009287  65.5945871
  56.0393366  70.8925132  66.5395010  55.1495673  71.5453136  65.5031327
  37.4083700  46.0462786  49.4373844  37.5161463  45.9378632  50.3822982
  36.6263770  46.5906635  49.3459300  57.5521096  73.0047032  66.0782831
  57.6598858  72.8962877  67.0231969  56.7701166  73.5490881  65.9868287
  49.1407530  41.6166862  65.0287869  49.2485293  41.5082708  65.9737008
  48.3587600  42.1610711  64.9373325  46.0383666  36.0366226  53.8921413
  46.1461428  35.9282071  54.8370552  45.2563736  36.5810074  53.8006870
  60.3623040  50.2851966  63.8145298  60.4700802  50.1767812  64.7594436
  59.5803110  50.8295815  63.7230754  61.8069726  48.5037054  65.6709173
  61.9147488  48.3952899  66.6158311  61.0249796  49.0480902  65.5794629
  65.4077188  63.7430090  63.7265847  65.5154950  63.6345935  64.6714985
  64.6257258  64.2873939  63.6351303  55.0892101  80.1301125  60.0978786
  55.1969863  80.0216971  61.0427925  54.3072171  80.6744974  60.0064243
  35.0915469  50.6929979  36.5035374  35.1993231  50.5845824  37.4484513
  34.3095539  51.2373828  36.4120830  43.5134452  71.2656907  74.3066197
  43.6212214  71.1572752  75.2515336  42.7314522  71.8100755  74.2151653
  61.0331424  62.6118163  54.3820777  61.1409186  62.5034009  55.3269916
  60.2511494  63.1562012  54.2906233  49.4761944  59.0710833  44.5855583
  49.5839707  58.9626679  45.5304722  48.6942014  59.6154682  44.4941039
  79.7234822  61.2409721  49.3629438  79.8312585  61.1325566  50.3078577
  78.9414892  61.7853570  49.2714894  47.6510457  60.6040328  42.9567820
  47.7588220  60.4956173  43.9016958  46.8690527  61.1484176  42.8653276
  61.4121836  67.2675200  45.1269245  61.5199599  67.1591045  46.0718384
  60.6301906  67.8119048  45.0354701  56.4940882  31.3636386  51.1787719
  56.6018645  31.2552231  52.1236857  55.7120952  31.9080234  51.0873175
  42.9458812  38.0103787  65.3256492  43.0536575  37.9019632  66.2705631
  42.1638882  38.5547636  65.2341948  46.4467617  38.6202651  66.1916598
  46.5545380  38.5118497  67.1365736  45.6647687  39.1646500  66.1002054
  77.1574437  61.0396085  48.4118530  77.2652199  60.9311930  49.3567668
  76.3754507  61.5839933  48.3203986  55.4489654  29.3631070  63.2325779
  55.5567416  29.2546915  64.1774918  54.6669724  29.9074918  63.1411235
  46.0701452  33.1916716  31.3135275  46.1779214  33.0832561  32.2584414
  45.2881522  33.7360565  31.2220731  50.2238416  31.3758074  65.7643638
  50.3316178  31.2673920  66.7092777  49.4418486  31.9201923  65.6729095
  52.8369509  30.8667606  66.5171461  52.9447271  30.7583451  67.4620599
  52.0549579  31.4111454  66.4256917  45.3026547  33.8628944  61.6442783
  45.4104310  33.7544789  62.5891922  44.5206617  34.4072793  61.5528239
  46.9277635  31.6894828  63.0086436  47.0355397  31.5810673  63.9535575
  46.1457705  32.2338677  62.9171892  56.0508867  57.4174691  51.3366387
  56.1586630  57.3090536  52.2815525  55.2688937  57.9618539  51.2451843
  59.5663400  54.8981914  56.9515439  59.6741163  54.7897760  57.8964578
  58.7843470  55.4425763  56.8600896  60.9138509  49.9091916  46.8065347
  61.0216271  49.8007762  47.7514485  60.1318579  50.4535765  46.7150803
  79.3111784  47.3189052  46.7813749  79.4189546  47.2104897  47.7262887
  78.5291854  47.8632900  46.6899205  61.9495216  62.8332627  58.2810243
  62.0572978  62.7248473  59.2259382  61.1675286  63.3776476  58.1895699
  73.2984420  47.4805163  43.6910192  73.4062182  47.3721008  44.6359330
  72.5164489  48.0249012  43.5995648  47.7301278  56.7709580  48.9253411
  47.8379041  56.6625426  49.8702550  46.9481348  57.3153429  48.8338867
  60.2498218  48.8439436  61.4242738  60.3575981  48.7355282  62.3691877
  59.4678288  49.3883285  61.3328194  57.6928360  52.1820469  76.7297153
  57.8006122  52.0736314  77.6746292  56.9108430  52.7264317  76.6382609
  50.1811689  58.3869884  39.8407974  50.2889451  58.2785729  40.7857112
  49.3991759  58.9313732  39.7493430  58.9467374  56.2575037  42.8563495
  59.0545136  56.1490883  43.8012633  58.1647444  56.8018886  42.7648951
  57.1223197  52.1096430  30.4254135  57.2300960  52.0012275  31.3703273
  56.3403267  52.6540278  30.3339591  42.8103962  45.3053849  49.8951006
  42.9181724  45.1969694  50.8400145  42.0284031  45.8497697  49.8036462
  49.3167817  36.0938595  55.6004165  49.4245579  35.9854441  56.5453304
  48.5347887  36.6382444  55.5089622  62.9935437  53.7246473  58.7629884
  63.1013200  53.6162318  59.7079022  62.2115507  54.2690321  58.6715340
  50.8037764  57.8338045  42.5103038  50.9115527  57.7253891  43.4552177
  50.0217834  58.3781894  42.4188494  54.1737158  60.6472526  49.0231195
  54.2814920  60.5388371  49.9680334  53.3917228  61.1916374  48.9316651
  61.3334059  37.8552790  55.8197197  61.4411822  37.7468635  56.7646335
  60.5514129  38.3996638  55.7282653  56.6225288  49.8129655  29.0347084
  56.7303050  49.7045501  29.9796222  55.8405358  50.3573504  28.9432540
  60.5302735  47.9408262  68.5184638  60.6380497  47.8324107  69.4633777
  59.7482805  48.4852110  68.4270094  71.1596905  68.0800244  41.4593526
  71.2674667  67.9716090  42.4042664  70.3776975  68.6244093  41.3678982
  54.0115536  48.7220608  29.2296346  54.1193298  48.6136453  30.1745485
  53.2295606  49.2664457  29.1381803  60.8842147  38.9989444  53.2184429
  60.9919909  38.8905289  54.1633568  60.1022217  39.5433293  53.1269885
  69.7705741  52.0237529  60.6484791  69.8783504  51.9153374  61.5933930
  68.9885811  52.5681377  60.5570247  46.4996012  34.0931485  45.8113638
  46.6073774  33.9847330  46.7562776  45.7176082  34.6375334  45.7199094
  70.5814084  45.9813811  38.1743384  70.6891846  45.8729656  39.1192522
  69.7994153  46.5257659  38.0828840  71.6160727  48.4468481  37.7658433
  71.7238489  48.3384326  38.7107571  70.8340797  48.9912329  37.6743889
  55.5944580  61.7066980  45.7308893  55.7022343  61.5982825  46.6758032
  54.8124650  62.2510828  45.6394349  46.3832572  36.8690418  48.2056011
  46.4910334  36.7606263  49.1505150  45.6012642  37.4134267  48.1141467
  78.8250367  50.4903827  49.7929790  78.9328129  50.3819672  50.7378929
  78.0430437  51.0347676  49.7015246  56.6102098  56.5744657  34.0037035
  56.7179860  56.4660502  34.9486174  55.8282168  57.1188505  33.9122491
  80.5987566  49.8644226  54.6061477  80.7065329  49.7560072  55.5510615
  79.8167636  50.4088075  54.5146933  72.5263306  42.1546997  48.4407012
  72.6341068  42.0462842  49.3856151  71.7443376  42.6990845  48.3492468
  60.7830371  36.7323425  51.6428896  60.8908134  36.6239271  52.5878035
  60.0010441  37.2767274  51.5514353  43.4945934  38.9712842  47.6964221
  43.6023696  38.8628688  48.6413360  42.7126004  39.5156691  47.6049677
  77.5571291  52.2267193  41.0258722  77.6649053  52.1183038  41.9707861
  76.7751361  52.7711041  40.9344178  55.2264351  38.0154587  76.0268469
  55.3342113  37.9070433  76.9717608  54.4444421  38.5598436  75.9353925
  74.4746408  46.8551461  55.0394156  74.5824170  46.7467307  55.9843295
  73.6926478  47.3995310  54.9479612  47.5474976  36.5886322  40.8098246
  47.6552738  36.4802167  41.7547384  46.7655046  37.1330170  40.7183702
  75.5324139  46.1297880  44.2901873  75.6401901  46.0213726  45.2351012
  74.7504209  46.6741729  44.1987329  78.1626329  46.8424439  44.2978530
  78.2704091  46.7340285  45.2427669  77.3806399  47.3868288  44.2063986
  55.8512524  55.8460540  31.5714371  55.9590286  55.7376386  32.5163509
  55.0692594  56.3904389  31.4799827  51.4387794  47.1429749  26.8610630
  51.5465557  47.0345594  27.8059768  50.6567864  47.6873597  26.7696086
  52.0853067  60.2999598  44.4127528  52.1930830  60.1915443  45.3576667
  51.3033137  60.8443447  44.3212984  57.5908871  32.4831807  49.0365843
  57.6986633  32.3747653  49.9814981  56.8088941  33.0275656  48.9451299
  71.8736717  63.5248146  52.8451669  71.9814480  63.4163991  53.7900808
  71.0916787  64.0691995  52.7537125  55.5479962  37.7820151  39.9136696
  55.6557725  37.6735997  40.8585834  54.7660032  38.3264000  39.8222152
  77.8404333  49.6538751  40.5727491  77.9482095  49.5454596  41.5176629
  77.0584403  50.1982600  40.4812947  72.9630946  39.4169814  41.5408785
  73.0708708  39.3085659  42.4857924  72.1811016  39.9613662  41.4494241
  43.2800915  44.3640215  43.0537817  43.3878677  44.2556060  43.9986955
  42.4980985  44.9084063  42.9623273  59.2921155  54.3203205  40.3377223
  59.3998917  54.2119050  41.2826361  58.5101225  54.8647053  40.2462679
  76.5877818  44.8743295  46.6575469  76.6955580  44.7659140  47.6024608
  75.8057888  45.4187143  46.5660925  49.3729770  39.5307646  34.2999619
  49.4807532  39.4223492  35.2448758  48.5909840  40.0751495  34.2085076
  59.2264295  57.7781414  36.9452173  59.3342057  57.6697259  37.8901312
  58.4444365  58.3225262  36.8537629  56.0149191  59.8729002  36.8701132
  56.1226954  59.7644847  37.8150271  55.2329261  60.4172851  36.7786589
  71.9985189  49.4689449  58.4328183  72.1062951  49.3605295  59.3777322
  71.2165259  50.0133298  58.3413640  73.6389192  39.9893107  45.6574458
  73.7466955  39.8808952  46.6023596  72.8569262  40.5336955  45.5659914
  48.4105230  41.8633556  33.1143078  48.5182992  41.7549401  34.0592217
  47.6285300  42.4077404  33.0228534  52.1658669  40.9918061  30.5478171
  52.2736431  40.8833907  31.4927310  51.3838739  41.5361910  30.4563627
  63.9184788  50.7842423  60.6601567  64.0262551  50.6758268  61.6050705
  63.1364858  51.3286272  60.5687023  66.8392503  64.9455346  48.2469135
  66.9470265  64.8371192  49.1918274  66.0572573  65.4899195  48.1554591
  49.5885464  30.5508329  56.7426579  49.6963226  30.4424174  57.6875717
  48.8065534  31.0952177  56.6512035  52.1414230  31.0679328  44.2392974
  52.2491992  30.9595173  45.1842113  51.3594300  31.6123177  44.1478431
  54.3590664  47.4311558  26.7302131  54.4668427  47.3227403  27.6751270
  53.5770734  47.9755407  26.6387587  56.8106903  62.5661717  43.6171632
  56.9184665  62.4577562  44.5620771  56.0286973  63.1105565  43.5257088
  61.5717477  53.2849788  61.4831929  61.6795239  53.1765634  62.4281068
  60.7897547  53.8293637  61.3917385  76.8769953  44.7297567  53.8711989
  76.9847716  44.6213412  54.8161127  76.0950023  45.2741416  53.7797445
  63.6994260  38.3625920  52.2621131  63.8072022  38.2541765  53.2070270
  62.9174330  38.9069768  52.1706587  80.6613542  51.3162530  48.2205763
  80.7691304  51.2078375  49.1654902  79.8793612  51.8606378  48.1291220
  65.5058892  47.5967365  62.0583412  65.6136654  47.4883210  63.0032551
  64.7238962  48.1411213  61.9668869  63.2667132  55.9515178  32.5773474
  63.3744894  55.8431024  33.5222613  62.4847202  56.4959027  32.4858930
  67.1582072  67.8004277  49.6382126  67.2659834  67.6920123  50.5831264
  66.3762142  68.3448126  49.5467582  61.3660244  43.6684212  70.4016276
  61.4738006  43.5600057  71.3465415  60.5840314  44.2128060  70.3101732
  64.7706748  68.6736295  55.6926508  64.8784511  68.5652140  56.6375646
  63.9886818  69.2180143  55.6011964  67.0585080  39.1483971  52.8241125
  67.1662843  39.0399816  53.7690263  66.2765150  39.6927819  52.7326581
  81.1621504  54.1107145  55.0898692  81.2699267  54.0022991  56.0347831
  80.3801574  54.6550994  54.9984149  76.7091969  52.5468430  58.0511312
  76.8169731  52.4384275  58.9960451  75.9272039  53.0912278  57.9596769
  44.5206049  37.2576540  38.7611179  44.6283811  37.1492386  39.7060317
  43.7386119  37.8020389  38.6696635  67.1822541  61.6170141  60.3020276
  67.2900303  61.5085986  61.2469415  66.4002611  62.1613989  60.2105732
  58.5618500  54.0832615  29.0319819  58.6696262  53.9748461  29.9768958
  57.7798570  54.6276464  28.9405275  66.7817493  52.5869431  61.2950951
  66.8895256  52.4785276  62.2400090  65.9997563  53.1313280  61.2036407
  81.4366833  59.2861862  47.8461718  81.5444595  59.1777708  48.7910856
  80.6546902  59.8305711  47.7547174  68.6615232  59.4431465  59.8089205
  68.7692994  59.3347310  60.7538344  67.8795302  59.9875313  59.7174662
  60.0194239  33.0666474  49.8901840  60.1272001  32.9582320  50.8350979
  59.2374309  33.6110323  49.7987296  49.8280095  50.6526159  34.6185117
  49.9357858  50.5442005  35.5634256  49.0460165  51.1970008  34.5270573
  54.3565817  34.0727333  38.8794173  54.4643579  33.9643178  39.8243312
  53.5745887  34.6171182  38.7879629  60.9737151  45.8528118  30.6753037
  61.0814913  45.7443964  31.6202175  60.1917221  46.3971967  30.5838493
  79.4456676  48.5163064  42.6802130  79.5534439  48.4078909  43.6251268
  78.6636746  49.0606912  42.5887586  46.0898161  38.7639380  46.1113827
  46.1975923  38.6555226  47.0562966  45.3078231  39.3083229  46.0199283
  60.6005403  56.0183955  38.6065080  60.7083166  55.9099801  39.5514219
  59.8185473  56.5627804  38.5150537  43.5001333  47.5318871  43.3921515
  43.6079095  47.4234716  44.3370653  42.7181403  48.0762719  43.3006971
  55.9425991  32.1788794  54.3235687  56.0503753  32.0704639  55.2684826
  55.1606061  32.7232643  54.2321143  77.5122424  49.6363609  55.3868646
  77.6200187  49.5279454  56.3317785  76.7302494  50.1807457  55.2954102
  48.1539873  51.4183860  37.2920485  48.2617635  51.3099706  38.2369623
  47.3719943  51.9627709  37.2005941  35.4171840  42.5874110  48.9485460
  35.5249602  42.4789956  49.8934599  34.6351910  43.1317959  48.8570916
  67.1880030  57.8171245  61.6310516  67.2957792  57.7087090  62.5759655
  66.4060100  58.3615093  61.5395973  39.6168979  39.2405472  49.5715988
  39.7246741  39.1321317  50.5165127  38.8349048  39.7849320  49.4801444
  59.9551148  34.3856492  53.4029067  60.0628911  34.2772337  54.3478206
  59.1731218  34.9300341  53.3114523  59.7427119  38.1162943  60.1408516
  59.8504882  38.0078789  61.0857655  58.9607189  38.6606792  60.0493973
  59.4005985  63.5668207  44.7869025  59.5083748  63.4584052  45.7318163
  58.6186055  64.1112055  44.6954481  62.9794663  43.5890253  29.7562656
  63.0872425  43.4806099  30.7011795  62.1974733  44.1334102  29.6648113
  64.3977303  49.8520362  28.8503156  64.5055066  49.7436208  29.7952295
  63.6157373  50.3964211  28.7588612  80.4586334  50.7662474  44.0212054
  80.5664096  50.6578320  44.9661193  79.6766403  51.3106323  43.9297510
  52.5093713  61.9160999  41.9119552  52.6171475  61.8076844  42.8568691
  51.7273783  62.4604847  41.8205008  61.8368408  50.4512321  72.0307690
  61.9446170  50.3428166  72.9756829  61.0548478  50.9956169  71.9393146
  62.2996062  47.3274337  62.9756254  62.4073824  47.2190182  63.9205393
  61.5176132  47.8718185  62.8841710  67.8760655  46.2743494  32.8376305
  67.9838417  46.1659339  33.7825444  67.0940725  46.8187343  32.7461761
  79.3599619  53.1964013  57.6571820  79.4677381  53.0879858  58.6020959
  78.5779689  53.7407862  57.5657276  69.9372996  45.0346347  34.8975716
  70.0450759  44.9262193  35.8424855  69.1553066  45.5790196  34.8061172
  57.4200619  37.0328512  56.1869062  57.5278381  36.9244357  57.1318200
  56.6380689  37.5772361  56.0954518  63.0172611  65.9370489  42.9758975
  63.1250373  65.8286335  43.9208114  62.2352681  66.4814338  42.8844431
  53.4290192  43.9961235  26.5424597  53.5367955  43.8877080  27.4873735
  52.6470262  44.5405084  26.4510053  57.7347730  50.4414141  26.6166175
  57.8425492  50.3329987  27.5615314  56.9527800  50.9857990  26.5251632
  59.3635065  56.8789233  34.3688661  59.4712828  56.7705078  35.3137799
  58.5815135  57.4233081  34.2774117  53.6794151  42.3807075  69.7012638
  53.7871913  42.2722920  70.6461777  52.8974221  42.9250923  69.6098094
  45.3831936  38.1638620  41.9718456  45.4909698  38.0554466  42.9167595
  44.6012006  38.7082469  41.8803912  74.8486725  50.7704458  36.4906782
  74.9564488  50.6620303  37.4355921  74.0666795  51.3148306  36.3992238
  68.1847308  66.3125768  54.9756204  68.2925070  66.2041613  55.9205343
  67.4027378  66.8569617  54.8841661  70.9577263  37.5509814  47.0236993
  71.0655025  37.4425659  47.9686132  70.1757333  38.0953662  46.9322449
  79.7157403  59.9740163  54.0444050  79.8235165  59.8656009  54.9893189
  78.9337473  60.5184012  53.9529507  51.2945719  43.1280357  68.8910310
  51.4023481  43.0196203  69.8359448  50.5125789  43.6724206  68.7995766
  60.0638388  66.3249368  47.9015962  60.1716150  66.2165213  48.8465100
  59.2818458  66.8693216  47.8101418  75.4232507  48.4809596  40.4342872
  75.5310269  48.3725442  41.3792011  74.6412577  49.0253445  40.3428328
  63.2964802  34.3772617  45.2298291  63.4042565  34.2688463  46.1747430
  62.5144872  34.9216466  45.1383747  65.4095304  42.7368729  30.7853431
  65.5173067  42.6284574  31.7302569  64.6275374  43.2812578  30.6938887
  49.1409451  48.9442275  36.5218043  49.2487213  48.8358121  37.4667181
  48.3589521  49.4886124  36.4303499  43.2691408  37.1202501  50.0311201
  43.3769170  37.0118347  50.9760340  42.4871478  37.6646350  49.9396657
  63.7958934  36.3842191  37.5959269  63.9036697  36.2758037  38.5408407
  63.0139004  36.9286040  37.5044725  72.6194293  44.5584462  36.8983224
  72.7272056  44.4500307  37.8432363  71.8374363  45.1028311  36.8068680
  51.0262039  34.8475110  34.2041466  51.1339801  34.7390956  35.1490604
  50.2442109  35.3918959  34.1126922  60.0551174  33.2370200  42.2007645
  60.1628936  33.1286045  43.1456784  59.2731244  33.7814048  42.1093101
  66.0652250  39.4344653  50.0659501  66.1730012  39.3260498  51.0108640
  65.2832320  39.9788502  49.9744957  44.2164262  35.0645029  47.2104147
  44.3242024  34.9560875  48.1553286  43.4344332  35.6088878  47.1189603
  56.5728795  38.2118188  62.0906054  56.6806558  38.1034034  63.0355192
  55.7908865  38.7562037  61.9991510  41.4925044  46.2878499  45.5813976
  41.6002806  46.1794344  46.5263115  40.7105114  46.8322347  45.4899432
  62.9155634  32.6210064  47.4462485  63.0233396  32.5125910  48.3911623
  62.1335704  33.1653913  47.3547941  58.3378218  41.1625861  69.1811043
  58.4455981  41.0541706  70.1260182  57.5558288  41.7069710  69.0896499
  57.7993334  38.7439897  32.9082174  57.9071096  38.6355743  33.8531312
  57.0173404  39.2883746  32.8167630  47.5517856  40.6736871  44.3352788
  47.6595619  40.5652717  45.2801926  46.7697926  41.2180720  44.2438244
  64.6890160  40.2973025  32.0443158  64.7967923  40.1888871  32.9892297
  63.9070230  40.8416874  31.9528614  48.1638046  48.6210085  41.6328193
  48.2715808  48.5125930  42.5777332  47.3818116  49.1653934  41.5413649
  59.5699445  63.6480934  48.2819001  59.6777207  63.5396780  49.2268140
  58.7879515  64.1924783  48.1904457  79.5343241  53.2355123  43.2419529
  79.6421004  53.1270968  44.1868667  78.7523311  53.7798971  43.1504985
  74.9169707  42.7976581  44.2546194  75.0247470  42.6892427  45.1995332
  74.1349777  43.3420430  44.1631650  43.6753619  36.6296371  52.1449451
  43.7831381  36.5212216  53.0898590  42.8933689  37.1740219  52.0534908
  71.6454202  38.1546452  39.6743080  71.7531965  38.0462297  40.6192218
  70.8634272  38.6990300  39.5828536  47.9796377  52.3848379  33.7851297
  48.0874139  52.2764224  34.7300436  47.1976447  52.9292227  33.6936753
  53.7851800  33.1904462  67.6612530  53.8929563  33.0820307  68.6061668
  53.0031870  33.7348311  67.5697986  49.8392600  39.4292569  68.6539135
  49.9470363  39.3208415  69.5988274  49.0572670  39.9736418  68.5624591
  68.8385701  40.1595852  60.8887295  68.9463463  40.0511697  61.8336434
  68.0565771  40.7039701  60.7972751  55.4919307  33.0371523  60.7054370
  55.5997069  32.9287369  61.6503508  54.7099377  33.5815372  60.6139826
  45.0752902  36.7750278  65.0291625  45.1830665  36.6666123  65.9740763
  44.2932972  37.3194126  64.9377081  54.0774529  36.6089324  63.4444075
  54.1852291  36.5005170  64.3893214  53.2954599  37.1533173  63.3529531
  78.5020484  63.0752042  56.9060418  78.6098247  62.9667888  57.8509557
  77.7200554  63.6195891  56.8145874  68.6551030  67.3857921  44.7266640
  68.7628793  67.2773767  45.6715779  67.8731100  67.9301770  44.6352096
  69.3093178  64.8102035  52.7766083  69.4170940  64.7017880  53.7215222
  68.5273248  65.3545883  52.6851539  71.3444669  47.6780728  34.8914567
  71.4522432  47.5696573  35.8363706  70.5624739  48.2224576  34.8000023
  58.1818993  45.8233223  28.0303598  58.2896755  45.7149069  28.9752737
  57.3999063  46.3677072  27.9389054  54.0226100  30.0037122  53.7105154
  54.1303862  29.8952967  54.6554293  53.2406170  30.5480970  53.6190610
  51.6429657  60.9670248  39.5983165  51.7507419  60.8586094  40.5432304
  50.8609727  61.5114097  39.5068621  79.6691006  49.8551379  38.2447645
  79.7768768  49.7467224  39.1896784  78.8871076  50.3995227  38.1533101
  73.8633775  47.3794660  57.7808143  73.9711537  47.2710506  58.7257282
  73.0813845  47.9238509  57.6893599  81.2930018  57.9659338  53.4831673
  81.4007780  57.8575184  54.4280812  80.5110088  58.5103187  53.3917130
  55.8525439  38.2641698  64.7973841  55.9603201  38.1557543  65.7422979
  55.0705508  38.8085546  64.7059297  54.9780820  62.8015880  40.9955202
  55.0858582  62.6931725  41.9404341  54.1960890  63.3459729  40.9040658
  37.8917347  41.5512687  51.3341873  37.9995110  41.4428532  52.2791012
  37.1097417  42.0956536  51.2427330  44.4940071  42.3514834  39.3101021
  44.6017834  42.2430680  40.2550160  43.7120141  42.8958683  39.2186477
  70.1212819  38.8948031  52.9065943  70.2290582  38.7863877  53.8515082
  69.3392889  39.4391880  52.8151399  65.7570187  34.7979403  43.9297442
  65.8647949  34.6895249  44.8746580  64.9750257  35.3423252  43.8382898
  74.1916213  48.1979415  38.2650644  74.2993976  48.0895260  39.2099782
  73.4096283  48.7423263  38.1736100  55.2374959  34.7206927  66.0696201
  55.3452721  34.6122773  67.0145340  54.4555029  35.2650776  65.9781657
  53.8600007  61.5291312  37.9329793  53.9677769  61.4207158  38.8778931
  53.0780077  62.0735161  37.8415249  49.1027131  30.2311832  63.4036531
  49.2104893  30.1227678  64.3485669  48.3207201  30.7755681  63.3121987
  71.9400352  53.9322151  59.9818093  72.0478114  53.8237996  60.9267232
  71.1580422  54.4765999  59.8903549  57.0812199  35.7183809  38.7989947
  57.1889961  35.6099654  39.7439086  56.2992269  36.2627657  38.7075403
  72.8781267  40.0866162  50.3706246  72.9859029  39.9782007  51.3155384
  72.0961337  40.6310010  50.2791702  45.9987784  33.1097885  43.1664266
  46.1065547  33.0013731  44.1113404  45.2167854  33.6541734  43.0749722
  59.3579034  35.4683721  38.0375607  59.4656796  35.3599566  38.9824745
  58.5759104  36.0127570  37.9461063  44.9721278  41.1799376  41.9950375
  45.0799041  41.0715222  42.9399514  44.1901348  41.7243225  41.9035831
  59.0842821  35.6380894  55.5716506  59.1920583  35.5296739  56.5165644
  58.3022891  36.1824742  55.4801962  59.3153457  37.5059844 109.7823145
  59.2367088  37.1719708 110.6758903  60.1363123  37.9981612 109.7814617
  65.6704462  51.2513892 112.7859641  65.0192441  51.8367972 112.3993654
  66.4648824  51.7820087 112.8454678  59.5960089  48.3403029 113.1846775
  60.3690965  47.7932016 113.0459651  59.9485488  49.2047278 113.3961236
  61.9326367  44.4995695 110.8165225  62.1851887  43.9777217 110.0548688
  60.9950926  44.3361841 110.9191908  67.1479727  48.9404324 113.3228625
  66.5125560  49.0138950 114.0349530  66.8177133  49.5297923 112.6447704
  61.6522655  46.4023801 113.0189600  61.5358913  45.7268705 113.6870684
  61.7624915  45.9156175 112.2021753  63.9954196  45.8633948 116.7236289
  63.6312403  45.3364569 117.4349211  64.8521312  45.4732417 116.5502774
  63.6359683  40.8923848 111.7197638  63.8034086  41.7604084 112.0868109
  63.4456852  41.0551130 110.7958927  63.6148904  43.3481505 112.7044304
  63.4948529  43.7938556 113.5429785  62.9201492  43.6966823 112.1457843
  69.3133970  43.8202979 113.5324638  70.2251826  44.0530365 113.3572336
  68.8043617  44.4040023 112.9699717  62.4100400  44.6626358 114.9977870
  63.1124444  45.1147401 115.4651797  62.0781029  44.0210176 115.6257763
  63.6494165  51.4767300 115.0739975  63.5139840  52.3218836 115.5024823
  64.1903978  51.6786578 114.3105909  57.1023562  48.9942738 115.6467900
  57.6148083  49.7885989 115.7973465  57.7546275  48.2969029 115.5801502
  66.9636911  44.9906473 112.1111304  66.4483535  45.7611078 112.3499691
  66.6914220  44.3171609 112.7344365  71.9371185  47.7438828 114.0464477
  71.1600628  47.4049987 113.6019639  72.6162666  47.7491451 113.3719442
  66.7523215  42.8633565 113.9371085  66.4473350  43.1779714 114.7881228
  67.7053657  42.9414985 113.9798418  65.1969646  49.0223789 115.5864039
  64.6691008  48.2876548 115.2737277  64.6957149  49.7998465 115.3404007
  60.2557961  41.7147916 111.9666536  59.4195273  42.0522602 112.2875811
  60.1162731  41.5796896 111.0293673  63.3422247  46.8403999 108.5899012
  62.4349308  46.6093252 108.7890161  63.8393279  46.0441618 108.7772994
  66.2490325  55.5501506 111.5095698  65.5752024  55.8533203 112.1180656
  66.6356147  56.3530586 111.1601155  66.2483830  44.4458053 116.1296048
  66.9955649  44.9579450 115.8203170  66.5175419  44.1242106 116.9900441
  64.5210480  46.9416594 113.1123002  63.6121699  46.6575627 113.2095472
  64.5505564  47.3615672 112.2526309  64.2186568  48.4825337 110.4511081
  63.7805998  47.7661196 109.9916718  64.9597009  48.7101452 109.8896172
  68.3397795  47.3409719 110.0443138  67.7226966  46.6156547 109.9476191
  67.8714284  48.1019079 109.7010213  60.1296341  41.5595143 109.1664443
  59.2525808  41.4383944 108.8026689  60.6054094  40.7681222 108.9143331
  61.6872847  39.6198688 113.2985444  62.4081210  39.9979940 112.7949161
  61.0638151  40.3387564 113.4020422  65.8303970  40.3243837 114.2343776
  66.0467584  41.2068474 113.9332604  65.3498037  39.9330050 113.5049418
  60.8066529  50.7400611 114.2198868  60.9554649  51.4236075 113.5665540
  61.6132973  50.7205701 114.7348323  58.5619162  46.7665788 115.2259937
  58.3165204  45.8628118 115.4240147  58.7315077  46.7682939 114.2839415
  57.8314810  42.4994146 112.7246098  57.1384055  42.5738501 112.0686134
  57.5866561  41.7354490 113.2467615  64.3061935  53.2348741 111.6910615
  63.7335902  53.8538928 111.2381087  64.8794728  53.7848103 112.2250537
  70.1547211  52.8351762 109.7823145  70.0760843  52.5011625 110.6758903
  70.9756878  53.3273530 109.7814617  64.6908733  44.5709554 109.0326668
  65.6367838  44.4415762 109.1015086  64.3122978  43.8324216 109.5096096
  62.8751650  42.4959530 108.9681553  61.9683106  42.1992643 109.0444266
  63.1527631  42.1989348 108.1015839  61.6450435  39.3546466 109.1093532
  62.5069599  39.6801364 109.3689349  61.8300779  38.5677962 108.5966598
  69.7983071  38.2274992 116.2528755  69.2181740  38.8859796 115.8706807
  69.5319004  37.4052337 115.8416173  68.5807949  40.3875082 115.3085103
  67.6933804  40.6724733 115.0905298  68.9961938  40.2268846 114.4612380
  67.7251163  50.1519757 109.4033123  68.4287013  50.3569760 110.0190779
  67.0013812  50.7196519 109.6682207  68.5548973  45.9029618 115.5235393
  68.4984175  46.3598170 114.6843026  69.1077316  45.1420303 115.3458236
  72.3653779  41.6919350 116.3485513  72.1090713  41.2915986 117.1793721
  71.7406647  42.4063144 116.2235652  69.6337860  50.5902286 111.4531583
  70.4683464  50.1583485 111.2709058  69.4722203  50.4184300 112.3808478
  69.2883752  47.0934400 112.8187923  69.2332556  46.9278671 111.8776367
  68.6629808  47.8010433 112.9750112  62.5979878  36.5942509 112.3973241
  62.5858548  37.5384349 112.5541512  63.4903300  36.4112654 112.1032702
  70.9690096  56.8887061 109.1664443  70.0919562  56.7675862 108.8026689
  71.4447849  56.0973139 108.9143331  72.4844189  54.6838383 109.1093532
  73.3463353  55.0093282 109.3689349  72.6694534  53.8969879 108.5966598
  59.3153458  14.5121967  96.5068452  59.2367089  14.1781830  97.4004209
  60.1363125  15.0043735  96.5059924  65.6704463  28.2576015  99.5104947
  65.0192443  28.8430095  99.1238961  66.4648826  28.7882209  99.5699985
  59.5960090  25.3465152  99.9092082  60.3690966  24.7994139  99.7704957
  59.9485489  26.2109401 100.1206543  61.9326368  21.5057818  97.5410531
  62.1851888  20.9839339  96.7793994  60.9950927  21.3423963  97.6437215
  67.1479728  25.9466447 100.0473932  66.5125561  26.0201073 100.7594836
  66.8177134  26.5360045  99.3693011  61.6522657  23.4085924  99.7434906
  61.5358915  22.7330827 100.4115991  61.7624916  22.9218298  98.9267060
  63.9954197  22.8696071 103.4481596  63.6312405  22.3426692 104.1594517
  64.8521313  22.4794540 103.2748081  63.6359684  17.8985971  98.4442944
  63.8034087  18.7666207  98.8113415  63.4456853  18.0613252  97.5204233
  63.6148905  20.3543628  99.4289611  63.4948531  20.8000679 100.2675091
  62.9201494  20.7028946  98.8703149  61.3755797  33.1247270 103.0779742
  61.2979827  34.0755095 103.1568223  60.7717441  32.7793142 103.7354669
  69.3133971  20.8265101 100.2569945  70.2251828  21.0592488 100.0817643
  68.8043619  21.4102145  99.6945024  67.9203554  25.8090920 107.6483527
  67.2912416  25.9736634 106.9459594  67.5329216  26.2232529 108.4194491
  71.7992786  26.7445358 105.0027890  71.1143824  27.1244259 104.4524924
  71.8836635  27.3540684 105.7359838  63.4731516  25.5465328 104.9133612
  63.9369861  25.8253031 104.1238234  63.2088314  24.6448772 104.7306702
  62.4100402  21.6688480 101.7223177  63.1124445  22.1209524 102.1897103
  62.0781030  21.0272299 102.3503070  63.6494166  28.4829423 101.7985282
  63.5139841  29.3280959 102.2270130  64.1903979  28.6848700 101.0351216
  57.1023564  26.0004861 102.3713207  57.6148084  26.7948111 102.5218772
  57.7546277  25.3031151 102.3046809  58.9118448  29.1170617 104.4535960
  59.0885077  30.0388582 104.2656944  59.7075282  28.8029036 104.8830340
  66.9636913  21.9968596  98.8356611  66.4483536  22.7673200  99.0744998
  66.6914221  21.3233732  99.4589672  71.9371187  24.7500950 100.7709784
  71.1600630  24.4112110 100.3264946  72.6162668  24.7553574 100.0964749
  66.7523216  19.8695688 100.6616392  66.4473351  20.1841837 101.5126535
  67.7053658  19.9477108 100.7043725  65.1969648  26.0285911 102.3109346
  64.6691009  25.2938671 101.9982583  64.6957150  26.8060588 102.0649314
  70.1762494  24.2234932 107.4276392  69.5186168  24.9134193 107.5156521
  70.9802893  24.6131364 107.7710378  68.9867952  22.5779304 105.4780334
  69.4999834  23.2109296 105.9802044  69.6369176  21.9780500 105.1123694
  60.2557962  18.7210039  98.6911843  59.4195275  19.0584725  99.0121117
  60.1162732  18.5859018  97.7538979  63.3422248  23.8466121  95.3144319
  62.4349310  23.6155375  95.5135468  63.8393280  23.0503741  95.5018300
  66.2490327  32.5563629  98.2341005  65.5752025  32.8595325  98.8425963
  66.6356149  33.3592709  97.8846462  66.2483831  21.4520176 102.8541355
  66.9955650  21.9641573 102.5448477  66.5175421  21.1304228 103.7145748
  64.5210481  23.9478716  99.8368309  63.6121701  23.6637749  99.9340779
  64.5505565  24.3677795  98.9771616  69.7529749  27.5585306 103.6059476
  69.2992076  26.7176216 103.6624667  69.1223715  28.1946704 103.9434257
  68.1962688  29.3961803 104.5409295  68.4885662  29.9566860 103.8221660
  68.7061308  29.6890364 105.2962454  64.2186569  25.4887460  97.1756387
  63.7805999  24.7723319  96.7162025  64.9597010  25.7163575  96.6141479
  63.1596313  30.1742154 105.6302748  63.1172492  30.4003000 104.7011280
  64.0759012  29.9405528 105.7788549  72.3359684  23.7644657 103.2332706
  72.1977582  23.9546253 102.3053895  71.9795903  24.5264040 103.6900757
  61.2762114  27.0505183 105.4264710  62.0702712  26.5555503 105.2247285
  60.5653806  26.5223046 105.0632416  64.4481542  32.7243301 100.4488084
  64.6233298  32.2531344 101.2633707  63.7614330  33.3509067 100.6769345
  65.4038605  27.0015807 106.4951385  65.0688438  26.9616577 107.3909035
  64.9042551  26.3360523 106.0221796  68.3397797  24.3471842  96.7688445
  67.7226967  23.6218670  96.6721498  67.8714285  25.1081202  96.4255519
  59.0142627  35.8732664 107.2227944  59.2539225  36.5051188 107.9006963
  58.1711824  35.5220704 107.5093304  60.1296343  18.5657266  95.8909749
  59.2525809  18.4446067  95.5271996  60.6054096  17.7743344  95.6388638
  63.5270489  31.6811786 109.6269448  63.4540660  32.4866758 110.1388753
  63.0847882  31.8803752 108.8017470  63.3160269  30.9183556 103.1372270
  62.5327791  31.4605237 103.2310494  64.0153014  31.4357536 103.5366511
  67.7086699  25.4849873 103.3544899  66.7742978  25.6051335 103.1849603
  67.8863368  24.5822340 103.0904908  71.0959251  21.3267192 103.8894933
  71.5619703  22.1595184 103.8155235  71.5466751  20.8612174 104.5940191
  69.1635482  27.6711014 100.8881085  69.4395326  27.5567608 101.7974959
  68.2939981  27.2728498 100.8493258  65.7989546  31.9197364 104.5313898
  65.9811940  31.1019020 104.9941651  66.6222532  32.1365057 104.0938788
  66.1331711  30.8465550 101.7928947  66.6619478  30.3358004 101.1799109
  66.3959931  30.5308080 102.6574480  59.4887459  31.8980666 104.5526723
  58.8197835  32.3826794 104.0690763  59.3500329  32.1449887 105.4670101
  63.6292728  33.9324410 111.1509381  64.1811036  34.0956031 111.9158466
  63.9698921  34.5228848 110.4789406  66.7661115  31.8806385 108.1373063
  66.6412255  31.0796125 107.6284009  67.4240206  32.3752579 107.6487033
  68.8296024  29.6815405 109.7652613  67.8826359  29.5620757 109.6930940
  69.1778797  28.7937903 109.8478875  65.8342457  29.4768122 105.9656966
  65.6867419  28.5484829 106.1464536  66.6595950  29.4988212 105.4814041
  69.4376579  30.2996680 107.0521838  70.3623126  30.0939542 106.9146290
  69.2691882  30.0513081 107.9611180  61.6872848  16.6260810 100.0230751
  62.4081211  17.0042063  99.5194467  61.0638152  17.3449687 100.1265729
  65.8303971  17.3305959 100.9589083  66.0467586  18.2130597 100.6577911
  65.3498038  16.9392173 100.2294725  69.2271895  30.8182348 102.4083930
  69.4008772  30.2528770 101.6557782  69.7200786  31.6183243 102.2263420
  75.0811286  23.5818771 104.0274230  75.5242432  22.8326096 103.6293353
  74.2037796  23.5728907 103.6447962  70.2147067  30.1349112  99.5080828
  70.9097972  30.7555805  99.7268143  70.5570218  29.2844463  99.7833206
  72.1138491  27.5848818 101.0368159  72.6389815  27.9236090 100.3117479
  72.0260843  26.6495833 100.8531294  63.7979151  33.6520801 105.3963412
  63.3584142  33.1597180 106.0896269  64.5487268  33.1093769 105.1555487
  61.2453023  29.1958810 107.4685714  60.6233033  28.5329515 107.1687942
  61.9157890  29.2219942 106.7859362  60.8066530  27.7462733 100.9444174
  60.9554651  28.4298198 100.2910847  61.6132974  27.7267823 101.4593630
  74.6244151  25.0524009 106.4196677  75.4591042  25.4913813 106.5834238
  74.7603280  24.5762662 105.6004923  58.5619163  23.7727911 101.9505243
  58.3165205  22.8690241 102.1485453  58.7315078  23.7745061 101.0084721
  57.8314811  19.5056269  99.4491405  57.1384056  19.5800624  98.7931441
  57.5866563  18.7416612  99.9712922  64.3061936  30.2410864  98.4155922
  63.7335903  30.8601051  97.9626394  64.8794730  30.7910226  98.9495844
  67.5259196  30.5248014  99.5464504  68.4589869  30.4593576  99.7497380
  67.4382408  31.3604281  99.0879037  70.1547212  29.8413884  96.5068452
  70.0760844  29.5073748  97.4004209  70.9756879  30.3335652  96.5059924
  64.6908734  21.5771677  95.7571974  65.6367839  21.4477885  95.8260392
  64.3122979  20.8386339  96.2341402  62.8751652  19.5021653  95.6926859
  61.9683107  19.2054766  95.7689573  63.1527633  19.2051471  94.8261146
  61.6450436  16.3608588  95.8338839  62.5069600  16.6863487  96.0934656
  61.8300780  15.5740084  95.3211904  69.7983073  15.2337115 102.9774062
  69.2181742  15.8921919 102.5952114  69.5319005  14.4114459 102.5661479
  68.5807951  17.3937205 102.0330410  67.6933806  17.6786856 101.8150605
  68.9961940  17.2330968 101.1857687  56.5892201  31.9744956 107.1201855
  56.4546669  31.2145357 106.5539853  56.1724263  32.6985856 106.6530643
  67.7251164  27.1581880  96.1278430  68.4287014  27.3631882  96.7436085
  67.0013813  27.7258642  96.3927513  68.5548974  22.9091741 102.2480700
  68.4984176  23.3660292 101.4088332  69.1077317  22.1482426 102.0703543
  72.3653780  18.6981473 103.0730820  72.1090715  18.2978109 103.9039027
  71.7406648  19.4125267 102.9480959  59.7461327  32.8714273 107.3320297
  59.6293711  33.8159706 107.2298987  58.9253773  32.5687835 107.7206096
  69.6337862  27.5964409  98.1776890  70.4683465  27.1645607  97.9954365
  69.4722204  27.4246423  99.1053784  69.2883754  24.0996522  99.5433229
  69.2332557  23.9340794  98.6021673  68.6629809  24.8072555  99.6995419
  62.5979879  13.6004631  99.1218548  62.5858549  14.5446471  99.2786818
  63.4903301  13.4174777  98.8278009  62.5269443  32.2773522 107.2086304
  61.5765074  32.2775383 107.0950677  62.8301929  31.5306256 106.6922339
  78.2622137  38.1134060 108.2732067  78.9000547  37.9940807 107.5695407
  78.1442979  39.0614904 108.3320019  75.0711843  38.0661488 108.2093591
  74.7330354  37.9502553 107.3214126  75.9401611  37.6652653 108.1894598
  70.9298659  39.9196965 104.1990482  70.3663524  39.8286901 103.4306770
  70.8151054  39.0996869 104.6792975  68.4763091  41.4148156 107.0374703
  69.2684382  41.0738981 106.6221002  68.7159741  41.5243131 107.9576856
  76.5098217  43.5867932  99.5104947  75.8586197  44.1722013  99.1238961
  77.3042580  44.1174127  99.5699985  70.4353844  40.6757069  99.9092082
  71.2084720  40.1286056  99.7704957  70.7879243  41.5401319 100.1206543
  72.2738887  42.0033452 113.1158981  71.9828753  42.9079083 113.0005647
  72.9095871  42.0449979 113.8303050  73.1995094  39.3810300 109.7060341
  73.7958666  39.1566323 108.9917303  73.2570065  38.6395046 110.3085788
  72.7720122  36.8349736  97.5410531  73.0245643  36.3131257  96.7793994
  71.8344681  36.6715881  97.6437215  77.8163405  35.8385514 105.3485275
  78.6026494  35.4204937 104.9975692  78.0802109  36.7431606 105.5166923
  77.9873482  41.2758364 100.0473932  77.3519315  41.3492991 100.7594836
  77.6570889  41.8651963  99.3693011  72.4916411  38.7377841  99.7434906
  72.3752669  38.0622745 100.4115991  72.6018671  38.2510215  98.9267060
  74.8347952  38.1987989 103.4481596  74.4706159  37.6718610 104.1594517
  75.6915068  37.8086458 103.2748081  74.4753439  33.2277888  98.4442944
  74.6427841  34.0958125  98.8113415  74.2850608  33.3905170  97.5204233
  77.2328772  41.6894867 110.1108775  76.9329495  42.5919906 110.0024582
  76.8879832  41.4227050 110.9629927  70.6841254  38.1408664 106.1445479
  69.7591750  38.0084878 106.3523171  70.9325667  38.9202883 106.6415421
  74.4542660  35.6835546  99.4289611  74.3342285  36.1292597 100.2675091
  73.7595248  36.0320863  98.8703149  68.0450065  37.7841938 106.9789268
  68.1742446  38.0376417 107.8928680  67.3647516  38.3769646 106.6593923
  72.2149552  48.4539188 103.0779742  72.1373582  49.4047013 103.1568223
  71.6111195  48.1085060 103.7354669  80.1527726  36.1557019 100.2569945
  81.0645582  36.3884406 100.0817643  79.6437373  36.7394063  99.6945024
  72.9613154  38.4352506 115.2959076  73.7027838  38.9737550 115.0193900
  72.2550139  39.0618795 115.4530628  74.7899564  35.5154254 111.2664795
  75.6360759  35.9393667 111.4099444  74.7298201  34.8587878 111.9603358
  78.7597308  41.1382837 107.6483527  78.1306171  41.3028552 106.9459594
  78.3722970  41.5524447 108.4194491  82.6386540  42.0737275 105.0027890
  81.9537578  42.4536177 104.4524924  82.7230389  42.6832602 105.7359838
  77.4963701  32.3315055 108.5059806  76.6348180  32.6296308 108.7976544
  77.5226135  32.5485454 107.5740839  74.3125270  40.8757245 104.9133612
  74.7763616  41.1544948 104.1238234  74.0482068  39.9740690 104.7306702
  71.2049351  40.4228727 107.8513375  71.7750708  40.8515995 107.2130859
  71.7957463  40.1411312 108.5497561  73.2494156  36.9980398 101.7223177
  73.9518200  37.4501442 102.1897103  72.9174785  36.3564217 102.3503070
  66.9919490  35.2563951 107.0240310  66.2018544  35.5121479 106.5480421
  67.4830738  36.0712288 107.1292351  81.0083300  42.5969190 109.7745591
  81.8300743  42.1949377 109.4928273  81.0045703  42.4937424 110.7261707
  68.9434236  35.6208530 103.9823787  68.1465399  35.7327224 104.5007283
  68.7159828  35.9595182 103.1164678  74.7739903  42.1453233 111.9306302
  74.8384336  42.6073640 112.7664474  74.0650827  41.5150598 112.0588612
  65.2757193  35.5094441 109.4555301  65.5265232  36.3941451 109.7212877
  65.8116742  35.3299043 108.6830393  74.4887921  43.8121340 101.7985282
  74.3533596  44.6572876 102.2270130  75.0297733  44.0140618 101.0351216
  67.9417318  41.3296779 102.3713207  68.4541839  42.1240029 102.5218772
  68.5940031  40.6323069 102.3046809  69.7512203  44.4462535 104.4535960
  69.9278831  45.3680499 104.2656944  70.5469036  44.1320954 104.8830340
  69.0364559  36.4927167 114.3298123  68.9218075  35.5912424 114.6305222
  68.1809077  36.7390863 113.9782940  70.8743518  45.9640709 110.4546303
  71.4250943  45.8357772 109.6823297  70.0354994  46.2635598 110.1041195
  74.6710689  42.2291836 114.7990534  75.2039026  41.4680125 114.5689842
  74.1424771  41.9365488 115.5414688  65.9066235  39.6585433 103.1472778
  66.7441457  40.0682441 102.9306485  66.0844503  38.7184875 103.1172971
  77.8030667  37.3260513  98.8356611  77.2877291  38.0965118  99.0744998
  77.5307976  36.6525650  99.4589672  75.3877778  32.1710214 103.8941849
  74.5319374  31.7817065 103.7147488  75.8004730  32.2502175 103.0341634
  73.1619811  29.7895287 107.2999590  74.0272807  29.5938096 106.9405480
  73.2297320  29.5605639 108.2268947  82.7764941  40.0792868 100.7709784
  81.9994384  39.7404028 100.3264946  83.4556422  40.0845491 100.0964749
  77.5916970  35.1987606 100.6616392  77.2867106  35.5133755 101.5126535
  78.5447412  35.2769025 100.7043725  76.0363402  41.3577829 102.3109346
  75.5084764  40.6230588 101.9982583  75.5350905  42.1352505 102.0649314
  81.0156248  39.5526849 107.4276392  80.3579923  40.2426111 107.5156521
  81.8196647  39.9423281 107.7710378  70.7682130  32.0197495 104.6715957
  71.3425882  31.7972677 103.9389150  71.3553112  32.0886190 105.4244559
  79.8261707  37.9071222 105.4780334  80.3393589  38.5401214 105.9802044
  80.4762931  37.3072418 105.1123694  71.0951717  34.0501956  98.6911843
  70.2589029  34.3876643  99.0121117  70.9556486  33.9150936  97.7538979
  73.0704797  28.8938744 103.3991027  72.4169210  28.5787761 102.7747641
  73.0285272  28.2714485 104.1250850  74.1816002  39.1758039  95.3144319
  73.2743064  38.9447293  95.5135468  74.6787034  38.3795658  95.5018300
  77.0884081  47.8855546  98.2341005  76.4145780  48.1887243  98.8425963
  77.4749903  48.6884627  97.8846462  76.3042538  35.3820678 107.7238674
  75.3865099  35.6035625 107.5660362  76.7202681  35.4566988 106.8650382
  77.0877586  36.7812093 102.8541355  77.8349405  37.2933491 102.5448477
  77.3569175  36.4596146 103.7145748  75.3604236  39.2770634  99.8368309
  74.4515455  38.9929667  99.9340779  75.3899320  39.6969713  98.9771616
  80.5923503  42.8877224 103.6059476  80.1385830  42.0468133 103.6624667
  79.9617470  43.5238622 103.9434257  79.5356423  33.8169210 104.8360144
  78.7979180  33.3046596 105.1670386  79.7883196  33.3769591 104.0243421
  79.0356442  44.7253720 104.5409295  79.3279417  45.2858777 103.8221660
  79.5455063  45.0182281 105.2962454  65.9292406  36.9976148 103.8183511
  65.7316806  36.4045509 103.0934578  65.3739070  36.6928358 104.5359450
  73.9089130  36.8899255 105.9378104  73.9637740  35.9373091 105.8620581
  73.0980332  37.0458694 106.4219403  75.0580324  40.8179378  97.1756387
  74.6199753  40.1015237  96.7162025  75.7990764  41.0455493  96.6141479
  71.8481490  35.5076314 103.6968483  71.0349355  35.8070485 104.1033675
  72.3440484  35.1132003 104.4142965  73.9990068  45.5034071 105.6302748
  73.9566246  45.7294918 104.7011280  74.9152766  45.2697446 105.7788549
  83.1753438  39.0936575 103.2332706  83.0371337  39.2838171 102.3053895
  82.8189657  39.8555958 103.6900757  71.3395564  33.0794670 109.3129718
  71.9794944  32.9383429 108.6152681  70.5073095  32.7929183 108.9368320
  72.1155868  42.3797100 105.4264710  72.9096467  41.8847420 105.2247285
  71.4047561  41.8514963 105.0632416  76.9350713  44.7615196 109.7777078
  76.9887735  45.3306132 110.5454794  76.0665494  44.9317081 109.4131115
  68.4238632  36.5240182 101.5024463  67.4936220  36.4624638 101.7194425
  68.5196104  36.0016135 100.7061104  68.3424181  33.0494995 104.0902705
  68.6030998  33.9640328 103.9811865  69.1641353  32.5819437 104.2399318
  69.8149106  34.4632752 111.2601529  70.4872160  34.2550114 110.6114178
  68.9878893  34.2654838 110.8206762  75.8938813  38.9275458 111.3364010
  76.8230873  39.0786617 111.1632977  75.4729843  39.0159479 110.4812656
  74.6927144  42.9526122 109.1062548  74.5538230  42.5844907 109.9788486
  73.9041741  43.4673762 108.9346505  75.2875296  48.0535219 100.4488084
  75.4627052  47.5823262 101.2633707  74.6008084  48.6800985 100.6769345
  76.2432360  42.3307725 106.4951385  75.9082192  42.2908495 107.3909035
  75.7436305  41.6652441 106.0221796  70.2176603  37.7375355 112.0203967
  70.0796401  37.0055594 112.6215506  71.1281527  37.6484255 111.7388154
  79.1791551  39.6763759  96.7688445  78.5620722  38.9510587  96.6721498
  78.7108040  40.4373120  96.4255519  72.8458904  37.4495314 111.5087646
  73.5558523  36.8088507 111.4674265  72.8028212  37.7008209 112.4313827
  71.5587838  34.4360532 113.3283286  71.0225195  33.9851271 113.9804882
  70.9704547  34.5706441 112.5853750  69.8536382  51.2024582 107.2227944
  70.0932980  51.8343106 107.9006963  69.0105578  50.8512622 107.5093304
  70.9690097  33.8949184  95.8909749  70.0919563  33.7737984  95.5271996
  71.4447850  33.1035262  95.6388638  62.4892237  38.6826343 105.9851256
  63.1763277  38.3688073 105.3972272  62.3340366  39.5867708 105.7118508
  67.2926959  33.5716540 110.4136280  67.2085148  32.9642209 109.6786690
  66.4709666  34.0625558 110.4145776  74.3664243  47.0103704 109.6269448
  74.2934415  47.8158675 110.1388753  73.9241637  47.2095670 108.8017470
  74.1554023  46.2475474 103.1372270  73.3721545  46.7897154 103.2310494
  74.8546768  46.7649454 103.5366511  77.4650673  32.0570103 105.7806475
  77.9619373  31.3040066 105.4607545  76.6937655  32.0934420 105.2149685
  76.8262927  46.9090538 111.7827607  77.5390899  47.5438003 111.7103508
  76.3352956  47.0054404 110.9667609  78.5480454  40.8141791 103.3544899
  77.6136733  40.9343253 103.1849603  78.7257122  39.9114257 103.0904908
  74.0485642  34.1987486 105.5078160  73.6783429  33.6458527 106.1959065
  74.5444734  33.5945620 104.9553160  81.9353005  36.6559110 103.8894933
  82.4013457  37.4887102 103.8155235  82.3860506  36.1904092 104.5940191
  71.8774841  44.6584981 112.6033178  72.5784300  45.2921464 112.7562572
  71.4069956  44.9999713 111.8428817  80.0029236  43.0002931 100.8881085
  80.2789080  42.8859526 101.7974959  79.1333735  42.6020416 100.8493258
  76.6383300  47.2489282 104.5313898  76.8205695  46.4310938 104.9941651
  77.4616286  47.4656974 104.0938788  76.9725466  46.1757467 101.7928947
  77.5013232  45.6649922 101.1799109  77.2353685  45.8599997 102.6574480
  67.4742559  44.1921337 109.5364280  68.0595995  43.4465024 109.6692185
  67.2767397  44.5025293 110.4200944  70.3281214  47.2272584 104.5526723
  69.6591589  47.7118712 104.0690763  70.1894084  47.4741804 105.4670101
  62.0660213  36.7626937 108.2568724  62.1044313  36.2290527 109.0505842
  61.5600506  36.2362142 107.6379701  74.4686482  49.2616327 111.1509381
  75.0204790  49.4247949 111.9158466  74.8092676  49.8520765 110.4789406
  69.4450976  31.6091477 111.7531266  69.5092302  32.4706308 111.3408664
  69.3818096  30.9965479 111.0203624  65.6968791  35.4891039 101.3322655
  65.9922232  34.5801717 101.2789709  64.7956827  35.4678778 101.0103657
  77.6054870  47.2098303 108.1373063  77.4806009  46.4088043 107.6284009
  78.2633961  47.7044496 107.6487033  69.2263038  33.5647035 107.3150204
  68.5049624  34.1783003 107.1757677  70.0156294  34.1004800 107.2366849
  79.6689778  45.0107323 109.7652613  78.7220114  44.8912674 109.6930940
  80.0172551  44.1229821 109.8478875  67.4256632  33.1705137 101.4561980
  67.0969339  32.2902515 101.2737086  67.7796003  33.1152805 102.3438369
  76.6736211  44.8060039 105.9656966  76.5261174  43.8776747 106.1464536
  77.4989705  44.8280130 105.4814041  70.5398456  33.4578106 101.8237458
  70.8794528  33.9864028 101.1016066  70.9870576  33.7958512 102.5996024
  80.2770333  45.6288598 107.0521838  81.2016881  45.4231459 106.9146290
  80.1085637  45.3804999 107.9611180  73.2341896  31.8415157 111.2740526
  72.8938717  31.0422970 111.6761206  72.5280903  32.1416868 110.7017359
  72.5266603  31.9552728 100.0230751  73.2474965  32.3333981  99.5194467
  71.9031907  32.6741605 100.1265729  76.6697726  32.6597877 100.9589083
  76.8861340  33.5422515 100.6577911  76.1891793  32.2684090 100.2294725
  71.4096947  35.6183590 107.5359827  71.2641528  35.9323893 108.4284109
  70.9322151  36.2368490 106.9830726  73.2693330  32.6086138 107.5840717
  73.2554899  31.7127231 107.2473015  73.9865758  32.6156802 108.2179003
  75.1219461  33.0423478 109.6293844  74.8637238  33.9640549 109.6278175
  74.5904501  32.6453913 110.3194309  80.0665649  46.1474265 102.4083930
  80.2402527  45.5820688 101.6557782  80.5594541  46.9475160 102.2263420
  65.8842609  38.1588935 110.4747489  65.3396077  38.9348742 110.6067763
  66.7621959  38.5059739 110.3166610  72.6730226  31.4900518 102.8528287
  72.7946137  30.5617165 103.0519175  72.3832268  31.5039204 101.9406603
  75.5421416  29.1755429 105.9895007  75.5643113  29.2394762 105.0346987
  75.9589475  28.3359937 106.1835513  85.9205041  38.9110688 104.0274230
  86.3636187  38.1618014 103.6293353  85.0431551  38.9020825 103.6447962
  81.0540822  45.4641030  99.5080828  81.7491727  46.0847723  99.7268143
  81.3963972  44.6136381  99.7833206  66.6708631  37.2858831 113.3677646
  65.9290367  37.4341466 113.9542276  66.3501375  37.5467096 112.5044395
  82.9532245  42.9140735 101.0368159  83.4783569  43.2528008 100.3117479
  82.8654598  41.9787751 100.8531294  74.6152294  46.8274809 113.1658036
  74.9239420  46.5823956 114.0380735  75.4127776  47.0321447 112.6776906
  74.6372906  48.9812719 105.3963412  74.1977896  48.4889097 106.0896269
  75.3881023  48.4385686 105.1555487  67.1165245  45.1724259 105.3988040
  67.9423265  44.8728031 105.0186684  66.7659297  44.4031882 105.8477829
  72.0846778  44.5250728 107.4685714  71.4626787  43.8621433 107.1687942
  72.7551645  44.5511860 106.7859362  65.3173850  43.0910586 106.3576974
  64.4805758  42.6632760 106.1760975  65.2897495  43.2843029 107.2947765
  71.6460285  43.0754651 100.9444174  71.7948405  43.7590115 100.2910847
  72.4526728  43.0559741 101.4593630  85.4637905  40.3815927 106.4196677
  86.2984797  40.8205731 106.5834238  85.5997034  39.9054580 105.6004923
  69.4012918  39.1019829 101.9505243  69.1558960  38.1982159 102.1485453
  69.5708832  39.1036979 101.0084721  68.6708565  34.8348186  99.4491405
  67.9777810  34.9092541  98.7931441  68.4260317  34.0708530  99.9712922
  75.1455690  45.5702782  98.4155922  74.5729657  46.1892969  97.9626394
  75.7188484  46.1202143  98.9495844  78.3652950  45.8539932  99.5464504
  79.2983623  45.7885493  99.7497380  78.2776163  46.6896198  99.0879037
  80.9940967  45.1705802  96.5068452  80.9154598  44.8365666  97.4004209
  81.8150634  45.6627570  96.5059924  75.5302489  36.9063594  95.7571974
  76.4761594  36.7769802  95.8260392  75.1516734  36.1678256  96.2341402
  73.7145406  34.8313571  95.6926859  72.8076861  34.5346683  95.7689573
  73.9921387  34.5343389  94.8261146  64.6323346  36.1519934 106.1425906
  64.3126131  35.2985242 105.8500280  64.0856775  36.3668512 106.8983873
  68.4103254  38.8682375 109.8595412  68.6289264  39.7999483 109.8783446
  68.8229028  38.5090349 110.6450216  75.3307472  29.3750460 101.8471101
  74.5208200  29.0297545 102.2226347  76.0191889  29.0658004 102.4358712
  77.2598020  28.4528507 103.4695397  77.8129059  28.8723961 104.1285420
  77.4968106  27.5264255 103.5118353  72.4844191  31.6900506  95.8338839
  73.3463355  32.0155404  96.0934656  72.6694535  30.9032002  95.3211904
  64.5011606  39.7722846 108.1119027  63.8075078  39.3576798 107.5988982
  65.2484597  39.8143382 107.5152446  80.6376827  30.5629032 102.9774062
  80.0575496  31.2213836 102.5952114  80.3712760  29.7406377 102.5661479
  66.4148349  39.7041099 105.9885042  66.3919037  39.8028787 105.0366925
  66.7248985  40.5506250 106.3102208  69.0735727  41.7617254 110.1031657
  70.0278980  41.7301197 110.0361588  68.8748250  41.3007878 110.9181883
  69.6635109  40.3318370 112.6702454  70.4827998  40.8262449 112.6937292
  69.9371917  39.4150339 112.6420022  79.4201705  32.7229123 102.0330410
  78.5327560  33.0078773 101.8150605  79.8355694  32.5622886 101.1857687
  67.4285956  47.3036874 107.1201855  67.2940424  46.5437275 106.5539853
  67.0118018  48.0277774 106.6530643  78.5644919  42.4873797  96.1278430
  79.2680769  42.6923800  96.7436085  77.8407567  43.0550559  96.3927513
  79.3942729  38.2383659 102.2480700  79.3377930  38.6952210 101.4088332
  79.9471071  37.4774343 102.0703543  83.2047535  34.0273391 103.0730820
  82.9484469  33.6270026 103.9039027  82.5800403  34.7417184 102.9480959
  70.5855081  48.2006191 107.3320297  70.4687466  49.1451623 107.2298987
  69.7647528  47.8979752 107.7206096  80.4731616  42.9256327  98.1776890
  81.3077220  42.4937525  97.9954365  80.3115959  42.7538340  99.1053784
  80.1277508  39.4288440  99.5433229  80.0726312  39.2632711  98.6021673
  79.5023563  40.1364473  99.6995419  73.4373634  28.9296549  99.1218548
  73.4252303  29.8738389  99.2786818  74.3297056  28.7466694  98.8278009
  71.6109596  48.8534453 110.5476226  72.5136842  48.8858063 110.8642721
  71.3846966  47.9234904 110.5622561  73.3663198  47.6065439 107.2086304
  72.4158829  47.6067301 107.0950677  73.6695684  46.8598174 106.6922339
  77.2525753  25.5239326 103.3764484  76.4858149  24.9697812 103.5221167
  77.6636458  25.5961194 104.2378636  81.7692413  55.2488882 104.1990482
  81.2057278  55.1578819 103.4306770  81.6544808  54.4288787 104.6792975
  87.3491972  58.9159850  99.5104947  86.6979952  59.5013930  99.1238961
  88.1436335  59.4466045  99.5699985  81.2747599  56.0048987  99.9092082
  82.0478475  55.4577974  99.7704957  81.6272998  56.8693236 100.1206543
  83.6113877  52.1641653  97.5410531  83.8639397  51.6423174  96.7793994
  82.6738436  52.0007799  97.6437215  88.8267237  56.6050282 100.0473932
  88.1913070  56.6784908 100.7594836  88.4964643  57.1943881  99.3693011
  83.3310165  54.0669759  99.7434906  83.2146424  53.3914663 100.4115991
  83.4412425  53.5802133  98.9267060  85.6741706  53.5279906 103.4481596
  85.3099914  53.0010527 104.1594517  86.5308822  53.1378375 103.2748081
  85.3147193  48.5569806  98.4442944  85.4821596  49.4250042  98.8113415
  85.1244362  48.7197088  97.5204233  81.5235008  53.4700582 106.1445479
  80.5985505  53.3376796 106.3523171  81.7719421  54.2494801 106.6415421
  85.2936414  51.0127463  99.4289611  85.1736039  51.4584514 100.2675091
  84.5989003  51.3612781  98.8703149  78.8843819  53.1133855 106.9789268
  79.0136200  53.3668334 107.8928680  78.2041270  53.7061563 106.6593923
  90.9921480  51.4848937 100.2569945  91.9039337  51.7176323 100.0817643
  90.4831128  52.0685981  99.6945024  84.0887911  52.3272316 101.7223177
  84.7911954  52.7793359 102.1897103  83.7568539  51.6856134 102.3503070
  77.8313245  50.5855868 107.0240310  77.0412299  50.8413397 106.5480421
  78.3224492  51.4004206 107.1292351  79.7827990  50.9500447 103.9823787
  78.9859153  51.0619142 104.5007283  79.5553582  51.2887100 103.1164678
  76.1150948  50.8386359 109.4555301  76.3658986  51.7233369 109.7212877
  76.6510496  50.6590960 108.6830393  85.3281675  59.1413258 101.7985282
  85.1927350  59.9864794 102.2270130  85.8691488  59.3432536 101.0351216
  78.7811073  56.6588696 102.3713207  79.2935593  57.4531946 102.5218772
  79.4333786  55.9614987 102.3046809  76.7459989  54.9877350 103.1472778
  77.5835211  55.3974359 102.9306485  76.9238257  54.0476793 103.1172971
  88.6424422  52.6552431  98.8356611  88.1271045  53.4257036  99.0744998
  88.3701730  51.9817567  99.4589672  86.2271533  47.5002132 103.8941849
  85.3713129  47.1108982 103.7147488  86.6398484  47.5794093 103.0341634
  84.0013565  45.1187205 107.2999590  84.8666562  44.9230014 106.9405480
  84.0691074  44.8897557 108.2268947  93.6158696  55.4084786 100.7709784
  92.8388138  55.0695945 100.3264946  94.2950177  55.4137409 100.0964749
  88.4310725  50.5279523 100.6616392  88.1260860  50.8425672 101.5126535
  89.3841167  50.6060943 100.7043725  86.8757157  56.6869747 102.3109346
  86.3478518  55.9522506 101.9982583  86.3744659  57.4644423 102.0649314
  81.6075884  47.3489413 104.6715957  82.1819636  47.1264594 103.9389150
  82.1946867  47.4178107 105.4244559  81.9345471  49.3793874  98.6911843
  81.0982784  49.7168560  99.0121117  81.7950241  49.2442854  97.7538979
  83.9098552  44.2230662 103.3991027  83.2562964  43.9079679 102.7747641
  83.8679026  43.6006402 104.1250850  85.0209757  54.5049957  95.3144319
  84.1136819  54.2739210  95.5135468  85.5180789  53.7087576  95.5018300
  87.9277836  63.2147464  98.2341005  87.2539534  63.5179161  98.8425963
  88.3143658  64.0176544  97.8846462  87.9271340  52.1104011 102.8541355
  88.6743159  52.6225408 102.5448477  88.1962930  51.7888064 103.7145748
  86.1997990  54.6062552  99.8368309  85.2909209  54.3221585  99.9340779
  86.2293074  55.0261630  98.9771616  90.3750177  49.1461127 104.8360144
  89.6372934  48.6338513 105.1670386  90.6276951  48.7061509 104.0243421
  76.7686161  52.3268066 103.8183511  76.5710560  51.7337427 103.0934578
  76.2132825  52.0220276 104.5359450  84.7482884  52.2191172 105.9378104
  84.8031494  51.2665009 105.8620581  83.9374086  52.3750611 106.4219403
  85.8974078  56.1471295  97.1756387  85.4593508  55.4307154  96.7162025
  86.6384519  56.3747410  96.6141479  82.6875244  50.8368232 103.6968483
  81.8743110  51.1362403 104.1033675  83.1834238  50.4423921 104.4142965
  82.1789319  48.4086588 109.3129718  82.8188698  48.2675347 108.6152681
  81.3466849  48.1221101 108.9368320  79.2632386  51.8532100 101.5024463
  78.3329974  51.7916555 101.7194425  79.3589858  51.3308052 100.7061104
  79.1817935  48.3786913 104.0902705  79.4424753  49.2932246 103.9811865
  80.0035108  47.9111355 104.2399318  90.0185306  55.0055677  96.7688445
  89.4014476  54.2802505  96.6721498  89.5501794  55.7665037  96.4255519
  81.8083852  49.2241101  95.8909749  80.9313318  49.1029902  95.5271996
  82.2841605  48.4327180  95.6388638  73.3285992  54.0118261 105.9851256
  74.0157032  53.6979991 105.3972272  73.1734120  54.9159626 105.7118508
  78.1320714  48.9008458 110.4136280  78.0478903  48.2934127 109.6786690
  77.3103420  49.3917476 110.4145776  88.3044428  47.3862021 105.7806475
  88.8013127  46.6331983 105.4607545  87.5331409  47.4226338 105.2149685
  84.8879396  49.5279404 105.5078160  84.5177184  48.9750445 106.1959065
  85.3838489  48.9237538 104.9553160  72.9053968  52.0918854 108.2568724
  72.9438067  51.5582445 109.0505842  72.3994261  51.5654060 107.6379701
  80.2844730  46.9383395 111.7531266  80.3486057  47.7998226 111.3408664
  80.2211850  46.3257397 111.0203624  76.5362545  50.8182957 101.3322655
  76.8315986  49.9093635 101.2789709  75.6350581  50.7970696 101.0103657
  80.0656792  48.8938953 107.3150204  79.3443378  49.5074921 107.1757677
  80.8550048  49.4296718 107.2366849  78.2650387  48.4997054 101.4561980
  77.9363093  47.6194433 101.2737086  78.6189758  48.4444723 102.3438369
  81.3792210  48.7870024 101.8237458  81.7188283  49.3155945 101.1016066
  81.8264331  49.1250430 102.5996024  83.3660357  47.2844646 100.0230751
  84.0868720  47.6625898  99.5194467  82.7425661  48.0033522 100.1265729
  87.5091480  47.9889795 100.9589083  87.7255095  48.8714432 100.6577911
  87.0285547  47.5976008 100.2294725  82.2490702  50.9475508 107.5359827
  82.1035282  51.2615811 108.4284109  81.7715905  51.5660408 106.9830726
  84.1087084  47.9378056 107.5840717  84.0948653  47.0419149 107.2473015
  84.8259513  47.9448720 108.2179003  83.5123980  46.8192436 102.8528287
  83.6339892  45.8909082 103.0519175  83.2226023  46.8331122 101.9406603
  86.3815171  44.5047346 105.9895007  86.4036868  44.5686680 105.0346987
  86.7983230  43.6651855 106.1835513  82.4854039  58.4046569 100.9444174
  82.6342160  59.0882033 100.2910847  83.2920483  58.3851659 101.4593630
  80.2406672  54.4311746 101.9505243  79.9952714  53.5274076 102.1485453
  80.4102587  54.4328897 101.0084721  79.5102320  50.1640104  99.4491405
  78.8171565  50.2384459  98.7931441  79.2654072  49.4000448  99.9712922
  85.9849445  60.8994699  98.4155922  85.4123412  61.5184886  97.9626394
  86.5582239  61.4494061  98.9495844  91.8334721  60.4997720  96.5068452
  91.7548353  60.1657583  97.4004209  92.6544388  60.9919488  96.5059924
  86.3696243  52.2355512  95.7571974  87.3155348  52.1061720  95.8260392
  85.9910488  51.4970174  96.2341402  84.5539160  50.1605488  95.6926859
  83.6470616  49.8638601  95.7689573  84.8315142  49.8635306  94.8261146
  75.4717101  51.4811852 106.1425906  75.1519885  50.6277160 105.8500280
  74.9250529  51.6960430 106.8983873  86.1701226  44.7042378 101.8471101
  85.3601955  44.3589463 102.2226347  86.8585643  44.3949922 102.4358712
  88.0991775  43.7820425 103.4695397  88.6522813  44.2015878 104.1285420
  88.3361861  42.8556173 103.5118353  83.3237945  47.0192424  95.8338839
  84.1857109  47.3447322  96.0934656  83.5088289  46.2323919  95.3211904
  75.3405361  55.1014763 108.1119027  74.6468832  54.6868716 107.5988982
  76.0878352  55.1435300 107.5152446  91.4770582  45.8920950 102.9774062
  90.8969251  46.5505754 102.5952114  91.2106514  45.0698295 102.5661479
  77.2542103  55.0333017 105.9885042  77.2312792  55.1320704 105.0366925
  77.5642740  55.8798168 106.3102208  90.2595460  48.0521040 102.0330410
  89.3721315  48.3370691 101.8150605  90.6749449  47.8914804 101.1857687
  89.4038673  57.8165715  96.1278430  90.1074523  58.0215718  96.7436085
  88.6801322  58.3842477  96.3927513  90.2336483  53.5675576 102.2480700
  90.1771685  54.0244128 101.4088332  90.7864826  52.8066261 102.0703543
  94.0441289  49.3565308 103.0730820  93.7878224  48.9561944 103.9039027
  93.4194157  50.0709102 102.9480959  91.3125370  58.2548244  98.1776890
  92.1470974  57.8229443  97.9954365  91.1509713  58.0830258  99.1053784
  90.9671263  54.7580358  99.5433229  90.9120066  54.5924629  98.6021673
  90.3417318  55.4656390  99.6995419  84.2767388  44.2588467  99.1218548
  84.2646058  45.2030307  99.2786818  85.1690810  44.0758612  98.8278009
  88.0919508  40.8531243 103.3764484  87.3251903  40.2989730 103.5221167
  88.5030213  40.9253112 104.2378636  92.6477606  64.5533019  95.8909749
  91.7707072  64.4321820  95.5271996  93.1235359  63.7619097  95.6388638
  94.1631700  62.3484341  95.8338839  95.0250864  62.6739240  96.0934656
  94.3482044  61.5615837  95.3211904  65.6704464   5.2638137  86.2350254
  65.0192444   5.8492218  85.8484268  66.4648827   5.7944332  86.2945291
  59.5960091   2.3527274  86.6337388  60.3690967   1.8056261  86.4950264
  59.9485490   3.2171524  86.8451850  67.1479729   2.9528569  86.7719238
  66.5125562   3.0263196  87.4840143  66.8177136   3.5422168  86.0938317
  61.3755799  10.1309392  89.8025049  61.2979828  11.0817218  89.8813529
  60.7717442   9.7855265  90.4599975  67.9203555   2.8153042  94.3728833
  67.2912417   2.9798756  93.6704901  67.5329217   3.2294652  95.1439797
  71.7992787   3.7507480  91.7273197  71.1143825   4.1306382  91.1770230
  71.8836636   4.3602807  92.4605145  63.4731517   2.5527450  91.6378918
  63.9369862   2.8315153  90.8483541  63.2088315   1.6510895  91.4552009
  63.6494168   5.4891545  88.5230589  63.5139842   6.3343081  88.9515436
  64.1903980   5.6910823  87.7596522  57.1023565   3.0066983  89.0958514
  57.6148086   3.8010234  89.2464078  57.7546278   2.3093274  89.0292115
  58.9118450   6.1232740  91.1781267  59.0885078   7.0450704  90.9902251
  59.7075283   5.8091159  91.6075647  65.1969649   3.0348034  89.0354652
  64.6691010   2.3000793  88.7227890  64.6957152   3.8122710  88.7894621
  66.2490328   9.5625751  84.9586312  65.5752027   9.8657448  85.5671269
  66.6356150  10.3654832  84.6091769  69.7529750   4.5647428  90.3304783
  69.2992077   3.7238338  90.3869974  69.1223717   5.2008827  90.6679563
  68.1962689   6.4023925  91.2654601  68.4885664   6.9628982  90.5466967
  68.7061310   6.6952486  92.0207760  64.2186570   2.4949583  83.9001694
  63.7806000   1.7785442  83.4407331  64.9597011   2.7225697  83.3386785
  63.1596314   7.1804276  92.3548054  63.1172493   7.4065123  91.4256586
  64.0759013   6.9467651  92.5033856  61.2762115   4.0567305  92.1510017
  62.0702714   3.5617625  91.9492592  60.5653808   3.5285168  91.7877723
  64.4481543   9.7305424  87.1733391  64.6233299   9.2593467  87.9879013
  63.7614331  10.3571190  87.4014651  65.4038606   4.0077930  93.2196692
  65.0688439   3.9678700  94.1154342  64.9042552   3.3422646  92.7467102
  59.0142628  12.8794786  93.9473251  59.2539227  13.5113311  94.6252269
  58.1711825  12.5282826  94.2338610  63.5270490   8.6873909  96.3514755
  63.4540662   9.4928880  96.8634059  63.0847883   8.8865875  95.5262776
  63.3160270   7.9245679  89.8617576  62.5327792   8.4667359  89.9555801
  64.0153015   8.4419659  90.2611818  69.1635483   4.6773136  87.6126391
  69.4395327   4.5629731  88.5220265  68.2939982   4.2790621  87.5738564
  65.7989547   8.9259487  91.2559205  65.9811942   8.1081143  91.7186957
  66.6222533   9.1427179  90.8184095  66.1331713   7.8527672  88.5174254
  66.6619479   7.3420127  87.9044416  66.3959932   7.5370202  89.3819787
  59.4887461   8.9042789  91.2772029  58.8197836   9.3888916  90.7936069
  59.3500330   9.1512009  92.1915408  63.6292729  10.9386532  97.8754688
  64.1811037  11.1018154  98.6403773  63.9698923  11.5290970  97.2034713
  66.7661116   8.8868508  94.8618370  66.6412256   8.0858248  94.3529315
  67.4240208   9.3814701  94.3732340  68.8296025   6.6877528  96.4897920
  67.8826360   6.5682879  96.4176247  69.1778798   5.8000026  96.5724181
  65.8342458   6.4830244  92.6902272  65.6867421   5.5546952  92.8709842
  66.6595952   6.5050335  92.2059348  69.4376580   7.3058803  93.7767145
  70.3623127   7.1001664  93.6391596  69.2691883   7.0575204  94.6856487
  69.2271896   7.8244470  89.1329236  69.4008774   7.2590893  88.3803089
  69.7200787   8.6245365  88.9508726  70.2147069   7.1411235  86.2326135
  70.9097973   7.7617927  86.4513449  70.5570219   6.2906586  86.5078513
  72.1138492   4.5910940  87.7613466  72.6389816   4.9298213  87.0362786
  72.0260844   3.6557956  87.5776600  63.7979153  10.6582924  92.1208719
  63.3584143  10.1659302  92.8141575  64.5487269  10.1155891  91.8800794
  61.2453025   6.2020933  94.1931020  60.6233034   5.5391638  93.8933248
  61.9157892   6.2282065  93.5104668  60.8066532   4.7524856  87.6689481
  60.9554652   5.4360320  87.0156154  61.6132975   4.7329946  88.1838937
  58.5619165   0.7790034  88.6750550  58.3165207  -0.1247636  88.8730760
  58.7315079   0.7807184  87.7330028  64.3061937   7.2472986  85.1401228
  63.7335904   7.8663174  84.6871700  64.8794731   7.7972348  85.6741150
  67.5259197   7.5310137  86.2709811  68.4589870   7.4655698  86.4742686
  67.4382410   8.3666403  85.8124343  70.1547214   6.8476007  83.2313758
  70.0760845   6.5135871  84.1249516  70.9756880   7.3397775  83.2305231
  56.5892202   8.9807079  93.8447161  56.4546670   8.2207480  93.2785159
  56.1724265   9.7047979  93.3775950  67.7251165   4.1644002  82.8523737
  68.4287015   4.3694005  83.4681392  67.0013814   4.7320764  83.1172820
  59.7461328   9.8776396  94.0565604  59.6293712  10.8221828  93.9544294
  58.9253774   9.5749957  94.4451403  69.6337863   4.6026532  84.9022197
  70.4683467   4.1707730  84.7199671  69.4722206   4.4308545  85.8299091
  62.5269444   9.2835644  93.9331611  61.5765075   9.2837506  93.8195983
  62.8301931   8.5368379  93.4167646  78.2622138  15.1196183  94.9977373
  78.9000548  15.0002930  94.2940713  78.1442981  16.0677027  95.0565325
  75.0711844  15.0723611  94.9338898  74.7330356  14.9564675  94.0459433
  75.9401612  14.6714776  94.9139904  70.9298660  16.9259087  90.9235789
  70.3663525  16.8349024  90.1552077  70.8151055  16.1058992  91.4038281
  68.4763092  18.4210279  93.7620009  69.2684384  18.0801103  93.3466309
  68.7159742  18.5305254  94.6822163  76.5098219  20.5930055  86.2350254
  75.8586198  21.1784135  85.8484268  77.3042581  21.1236250  86.2945291
  70.4353846  17.6819192  86.6337388  71.2084722  17.1348179  86.4950264
  70.7879245  18.5463441  86.8451850  72.2738888  19.0095574  99.8404288
  71.9828754  19.9141205  99.7250954  72.9095873  19.0512102 100.5548357
  73.1995095  16.3872423  96.4305647  73.7958667  16.1628445  95.7162610
  73.2570067  15.6457168  97.0331095  72.7720124  13.8411858  84.2655838
  73.0245644  13.3193379  83.5039301  71.8344683  13.6778004  84.3682522
  77.8163406  12.8447636  92.0730581  78.6026496  12.4267060  91.7220998
  78.0802111  13.7493729  92.2412230  77.9873484  18.2820487  86.7719238
  77.3519317  18.3555113  87.4840143  77.6570890  18.8714086  86.0938317
  72.4916412  15.7439964  86.4680213  72.3752670  15.0684867  87.1361297
  72.6018672  15.2572338  85.6512366  74.8347953  15.2050111  90.1726902
  74.4706160  14.6780732  90.8839824  75.6915069  14.8148580  89.9993388
  74.4753440  10.2340011  85.1688251  74.6427843  11.1020247  85.5358722
  74.2850609  10.3967293  84.2449540  77.2328773  18.6956990  96.8354081
  76.9329496  19.5982029  96.7269888  76.8879833  18.4289173  97.6875234
  70.6841255  15.1470787  92.8690786  69.7591751  15.0147001  93.0768477
  70.9325668  15.9265006  93.3660728  74.4542661  12.6897668  86.1534918
  74.3342286  13.1354719  86.9920398  73.7595249  13.0382986  85.5948456
  68.0450066  14.7904060  93.7034575  68.1742447  15.0438539  94.6173986
  67.3647517  15.3831768  93.3839230  72.2149553  25.4601310  89.8025049
  72.1373583  26.4109135  89.8813529  71.6111197  25.1147183  90.4599975
  80.1527727  13.1619142  86.9815252  81.0645583  13.3946528  86.8062949
  79.6437374  13.7456186  86.4190330  72.9613155  15.4414629 102.0204383
  73.7027840  15.9799673 101.7439206  72.2550141  16.0680918 102.1775935
  74.7899565  12.5216376  97.9910101  75.6360760  12.9455790  98.1344750
  74.7298203  11.8650000  98.6848664  78.7597310  18.1444960  94.3728833
  78.1306172  18.3090674  93.6704901  78.3722972  18.5586570  95.1439797
  82.6386541  19.0799398  91.7273197  81.9537580  19.4598299  91.1770230
  82.7230391  19.6894725  92.4605145  77.4963702   9.3377178  95.2305113
  76.6348181   9.6358431  95.5221850  77.5226137   9.5547576  94.2986145
  74.3125271  17.8819368  91.6378918  74.7763617  18.1607071  90.8483541
  74.0482069  16.9802813  91.4552009  71.2049352  17.4290850  94.5758682
  71.7750710  17.8578118  93.9376166  71.7957464  17.1473434  95.2742867
  73.2494157  14.0042520  88.4468483  73.9518201  14.4563564  88.9142410
  72.9174786  13.3626339  89.0748377  66.9919491  12.2626073  93.7485617
  66.2018545  12.5183602  93.2725728  67.4830739  13.0774411  93.8537658
  81.0083301  19.6031312  96.4990898  81.8300745  19.2011500  96.2173579
  81.0045704  19.4999546  97.4507014  68.9434237  12.6270652  90.7069094
  68.1465400  12.7389347  91.2252589  68.7159829  12.9657305  89.8409984
  74.7739904  19.1515356  98.6551608  74.8384337  19.6135763  99.4909780
  74.0650828  18.5212721  98.7833918  65.2757194  12.5156564  96.1800608
  65.5265233  13.4003573  96.4458184  65.8116743  12.3361165  95.4075700
  74.4887922  20.8183463  88.5230589  74.3533597  21.6634999  88.9515436
  75.0297735  21.0202741  87.7596522  67.9417319  18.3358901  89.0958514
  68.4541840  19.1302151  89.2464078  68.5940032  17.6385192  89.0292115
  69.7512204  21.4524657  91.1781267  69.9278832  22.3742622  90.9902251
  70.5469038  21.1383077  91.6075647  69.0364561  13.4989289 101.0543430
  68.9218076  12.5974547 101.3550529  68.1809078  13.7452986 100.7028247
  76.1156398  21.4407030 102.6530931  75.6720253  20.6543408 102.3351835
  76.7773612  21.6286180 101.9874822  70.8743520  22.9702831  97.1791609
  71.4250945  22.8419895  96.4068603  70.0354996  23.2697720  96.8286502
  78.2137637  21.7209830 100.6812332  78.1956112  22.5418711 100.1892601
  79.1357557  21.5963905 100.9062473  74.6710691  19.2353959 101.5235840
  75.2039027  18.4742247 101.2935148  74.1424772  18.9427611 102.2659995
  65.9066236  16.6647555  89.8718084  66.7441458  17.0744564  89.6551792
  66.0844504  15.7246998  89.8418278  77.8030668  14.3322636  85.5601917
  77.2877292  15.1027241  85.7990305  77.5307977  13.6587772  86.1834979
  75.3877779   9.1772337  90.6187156  74.5319376   8.7879187  90.4392794
  75.8004731   9.2564298  89.7586941  73.1619812   6.7957410  94.0244897
  74.0272809   6.6000219  93.6650787  73.2297321   6.5667762  94.9514254
  82.7764942  17.0854991  87.4955091  81.9994385  16.7466150  87.0510253
  83.4556423  17.0907614  86.8210056  77.5916972  12.2049728  87.3861698
  77.2867107  12.5195877  88.2371842  78.5447414  12.2831148  87.4289031
  76.0363403  18.3639951  89.0354652  75.5084765  17.6292711  88.7227890
  75.5350906  19.1414628  88.7894621  81.0156249  16.5588972  94.1521699
  80.3579924  17.2488233  94.2401827  81.8196649  16.9485404  94.4955685
  70.7682131   9.0259618  91.3961264  71.3425883   8.8034799  90.6634457
  71.3553113   9.0948312  92.1489865  79.8261708  14.9133345  92.2025640
  80.3393590  15.5463336  92.7047350  80.4762932  14.3134540  91.8369000
  71.0951718  11.0564079  85.4157149  70.2589030  11.3938765  85.7366424
  70.9556488  10.9213059  84.4784286  73.0704799   5.9000867  90.1236333
  72.4169211   5.5849884  89.4992948  73.0285273   5.2776607  90.8496156
  74.1816004  16.1820162  82.0389625  73.2743065  15.9509415  82.2380774
  74.6787036  15.3857781  82.2263607  77.0884082  24.8917669  84.9586312
  76.4145781  25.1949366  85.5671269  77.4749904  25.6946749  84.6091769
  76.3042539  12.3882800  94.4483981  75.3865100  12.6097747  94.2905669
  76.7202683  12.4629111  93.5895688  77.0877587  13.7874216  89.5786661
  77.8349406  14.2995613  89.2693783  77.3569176  13.4658269  90.4391055
  75.3604237  16.2832757  86.5613615  74.4515456  15.9991789  86.6586085
  75.3899321  16.7031835  85.7016922  80.5923504  19.8939346  90.3304783
  80.1385832  19.0530256  90.3869974  79.9617471  20.5300744  90.6679563
  79.5356424  10.8231332  91.5605451  78.7979181  10.3108718  91.8915693
  79.7883198  10.3831714  90.7488727  79.0356444  21.7315843  91.2654601
  79.3279418  22.2920900  90.5466967  79.5455064  22.0244404  92.0207760
  65.9292407  14.0038271  90.5428818  65.7316807  13.4107631  89.8179884
  65.3739071  13.6990481  91.2604756  73.9089131  13.8961377  92.6623411
  73.9637741  12.9435214  92.5865887  73.0980333  14.0520816  93.1464709
  75.0580325  17.8241500  83.9001694  74.6199755  17.1077359  83.4407331
  75.7990766  18.0517615  83.3386785  71.8481491  12.5138437  90.4213790
  71.0349356  12.8132608  90.8278982  72.3440485  12.1194126  91.1388272
  73.9990069  22.5096194  92.3548054  73.9566248  22.7357040  91.4256586
  74.9152768  22.2759568  92.5033856  83.1753440  16.0998697  89.9578013
  83.0371338  16.2900293  89.0299202  82.8189658  16.8618080  90.4146064
  71.3395566  10.0856792  96.0375025  71.9794945   9.9445552  95.3397988
  70.5073096   9.7991306  95.6613627  72.1155870  19.3859223  92.1510017
  72.9096468  18.8909543  91.9492592  71.4047562  18.8577086  91.7877723
  76.9350714  21.7677318  96.5022385  76.9887736  22.3368255  97.2700101
  76.0665495  21.9379203  96.1376422  68.4238633  13.5302305  88.2269770
  67.4936221  13.4686760  88.4439732  68.5196105  13.0078257  87.4306411
  68.3424182  10.0557117  90.8148011  68.6030999  10.9702451  90.7057172
  69.1641354   9.5881560  90.9644624  69.8149107  11.4694875  97.9846836
  70.4872161  11.2612237  97.3359485  68.9878894  11.2716961  97.5452068
  75.8938814  15.9337580  98.0609317  76.8230874  16.0848740  97.8878284
  75.4729844  16.0221601  97.2057963  74.6927146  19.9588245  95.8307854
  74.5538231  19.5907029  96.7033792  73.9041742  20.4735884  95.6591812
  75.2875298  25.0597341  87.1733391  75.4627053  24.5885385  87.9879013
  74.6008086  25.6863108  87.4014651  76.2432361  19.3369848  93.2196692
  75.9082193  19.2970618  94.1154342  75.7436306  18.6714564  92.7467102
  70.2176605  14.7437478  98.7449273  70.0796403  14.0117716  99.3460812
  71.1281528  14.6546378  98.4633461  79.1791552  16.6825882  83.4933752
  78.5620723  15.9572710  83.3966804  78.7108041  17.4435242  83.1500826
  72.8458905  14.4557437  98.2332953  73.5558524  13.8150629  98.1919571
  72.8028214  14.7070332  99.1559134  71.5587839  11.4422655 100.0528592
  71.0225196  10.9913393 100.7050189  70.9704548  11.5768564  99.3099057
  69.8536383  28.2086704  93.9473251  70.0932981  28.8405228  94.6252269
  69.0105579  27.8574744  94.2338610  70.9690098  10.9011306  82.6155056
  70.0919565  10.7800107  82.2517303  71.4447851  10.1097385  82.3633945
  62.4892238  15.6888466  92.7096563  63.1763278  15.3750196  92.1217578
  62.3340367  16.5929831  92.4363814  67.2926961  10.5778663  97.1381587
  67.2085149   9.9704332  96.4031997  66.4709667  11.0687681  97.1391083
  74.3664245  24.0165827  96.3514755  74.2934416  24.8220798  96.8634059
  73.9241638  24.2157792  95.5262776  74.1554024  23.2537597  89.8617576
  73.3721546  23.7959277  89.9555801  74.8546770  23.7711576  90.2611818
  77.4650674   9.0632226  92.5051782  77.9619374   8.3102188  92.1852852
  76.6937656   9.0996543  91.9394991  76.8262928  23.9152661  98.5072914
  77.5390900  24.5500125  98.4348815  76.3352957  24.0116527  97.6912915
  78.5480455  17.8203913  90.0790205  77.6136734  17.9405376  89.9094910
  78.7257124  16.9176380  89.8150215  74.0485643  11.2049609  92.2323466
  73.6783431  10.6520649  92.9204372  74.5444736  10.6007743  91.6798466
  81.9353007  13.6621233  90.6140239  82.4013459  14.4949224  90.5400542
  82.3860507  13.1966214  91.3185498  71.8774842  21.6647104  99.3278484
  72.5784301  22.2983587  99.4807879  71.4069957  22.0061836  98.5674124
  80.0029238  20.0065054  87.6126391  80.2789082  19.8921648  88.5220265
  79.1333736  19.6082539  87.5738564  76.6383302  24.2551405  91.2559205
  76.8205696  23.4373061  91.7186957  77.4616288  24.4719097  90.8184095
  76.9725467  23.1819590  88.5174254  77.5013234  22.6712044  87.9044416
  77.2353687  22.8662120  89.3819787  67.4742560  21.1983459  96.2609587
  68.0595997  20.4527147  96.3937491  67.2767398  21.5087416  97.1446251
  70.3281215  24.2334706  91.2772029  69.6591590  24.7180834  90.7936069
  70.1894085  24.4803927  92.1915408  62.0660215  13.7689059  94.9814030
  62.1044314  13.2352650  95.7751148  61.5600507  13.2424265  94.3625007
  74.4686484  26.2678450  97.8754688  75.0204792  26.4310072  98.6403773
  74.8092677  26.8582888  97.2034713  69.4450977   8.6153600  98.4776573
  69.5092303   9.4768431  98.0653970  69.3818097   8.0027601  97.7448931
  65.6968792  12.4953161  88.0567962  65.9922233  11.5863840  88.0035015
  64.7956828  12.4740901  87.7348964  77.6054871  24.2160426  94.8618370
  77.4806010  23.4150165  94.3529315  78.2633962  24.7106619  94.3732340
  69.2263039  10.5709158  94.0395510  68.5049625  11.1845126  93.9002983
  70.0156295  11.1066923  93.9612156  79.6689779  22.0169446  96.4897920
  78.7220115  21.8974797  96.4176247  80.0172552  21.1291944  96.5724181
  67.4256634  10.1767259  88.1807287  67.0969340   9.2964638  87.9982393
  67.7796004  10.1214928  89.0683676  76.6736213  21.8122162  92.6902272
  76.5261175  20.8838869  92.8709842  77.4989706  21.8342253  92.2059348
  70.5398457  10.4640229  88.5482764  70.8794529  10.9926150  87.8261373
  70.9870577  10.8020635  89.3241331  80.2770334  22.6350721  93.7767145
  81.2016882  22.4293582  93.6391596  80.1085638  22.3867122  94.6856487
  73.2341898   8.8477280  97.9985832  72.8938718   8.0485093  98.4006512
  72.5280904   9.1478990  97.4262666  72.5266604   8.9614851  86.7476057
  73.2474967   9.3396103  86.2439774  71.9031908   9.6803727  86.8511035
  76.6697727   9.6659999  87.6834390  76.8861341  10.5484637  87.3823218
  76.1891794   9.2746213  86.9540032  71.4096948  12.6245713  94.2605134
  71.2641529  12.9386016  95.1529416  70.9322152  13.2430613  93.7076033
  73.2693331   9.6148261  94.3086024  73.2554900   8.7189354  93.9718322
  73.9865759   9.6218924  94.9424310  75.1219462  10.0485601  96.3539151
  74.8637240  10.9702672  96.3523482  74.5904502   9.6516035  97.0439615
  80.0665651  23.1536388  89.1329236  80.2402528  22.5882811  88.3803089
  80.5594542  23.9537283  88.9508726  65.8842610  15.1651057  97.1992795
  65.3396079  15.9410865  97.3313070  66.7621960  15.5121862  97.0411917
  72.6730227   8.4962641  89.5773594  72.7946138   7.5679287  89.7764481
  72.3832269   8.5101327  88.6651909  75.5421418   6.1817551  92.7140314
  75.5643114   6.2456885  91.7592293  75.9589477   5.3422060  92.9080820
  85.9205042  15.9172811  90.7519536  86.3636188  15.1680136  90.3538659
  85.0431552  15.9082947  90.3693268  81.0540823  22.4703152  86.2326135
  81.7491728  23.0909845  86.4513449  81.3963973  21.6198504  86.5078513
  66.6708632  14.2920953 100.0922952  65.9290368  14.4403589 100.6787583
  66.3501377  14.5529219  99.2289702  82.9532246  19.9202858  87.7613466
  83.4783570  20.2590131  87.0362786  82.8654599  18.9849873  87.5776600
  74.6152295  23.8336932  99.8903342  74.9239421  23.5886078 100.7626042
  75.4127777  24.0383570  99.4022212  74.6372907  25.9874841  92.1208719
  74.1977897  25.4951220  92.8141575  75.3881024  25.4447809  91.8800794
  67.1165246  22.1786382  92.1233347  67.9423266  21.8790154  91.7431990
  66.7659298  21.4094005  92.5723135  72.0846779  21.5312850  94.1931020
  71.4626788  20.8683555  93.8933248  72.7551646  21.5573982  93.5104668
  65.3173851  20.0972709  93.0822280  64.4805759  19.6694883  92.9006282
  65.2897496  20.2905152  94.0193072  71.6460286  20.0816774  87.6689481
  71.7948406  20.7652238  87.0156154  72.4526730  20.0621864  88.1838937
  85.4637907  17.3878049  93.1441984  86.2984798  17.8267853  93.3079544
  85.5997035  16.9116702  92.3250230  69.4012919  16.1081951  88.6750550
  69.1558961  15.2044281  88.8730760  69.5708834  16.1099102  87.7330028
  68.6708567  11.8410309  86.1736711  67.9777812  11.9154664  85.5176747
  68.4260319  11.0770653  86.6958228  75.1455692  22.5764904  85.1401228
  74.5729659  23.1955091  84.6871700  75.7188485  23.1264266  85.6741150
  78.3652951  22.8602054  86.2709811  79.2983625  22.7947616  86.4742686
  78.2776164  23.6958321  85.8124343  80.9940968  22.1767925  83.2313758
  80.9154600  21.8427788  84.1249516  81.8150635  22.6689692  83.2305231
  75.5302490  13.9125717  82.4817281  76.4761595  13.7831925  82.5505699
  75.1516735  13.1740379  82.9586709  73.7145407  11.8375693  82.4172166
  72.8076863  11.5408806  82.4934880  73.9921388  11.5405511  81.5506452
  64.6323348  13.1582057  92.8671212  64.3126132  12.3047365  92.5745586
  64.0856776  13.3730635  93.6229180  68.4103255  15.8744498  96.5840719
  68.6289265  16.8061605  96.6028753  68.8229029  15.5152472  97.3695523
  75.3307473   6.3812583  88.5716407  74.5208201   6.0359668  88.9471653
  76.0191890   6.0720127  89.1604019  72.4844192   8.6962628  82.5584145
  73.3463356   9.0217527  82.8179963  72.6694536   7.9094124  82.0457211
  64.5011608  16.7784968  94.8364334  63.8075079  16.3638921  94.3234288
  65.2484599  16.8205505  94.2397753  80.6376828   7.5691155  89.7019368
  80.0575497   8.2275959  89.3197421  80.3712761   6.7468500  89.2906786
  66.4148350  16.7103222  92.7130349  66.3919038  16.8090909  91.7612232
  66.7248987  17.5568373  93.0347515  69.0735728  18.7679377  96.8276963
  70.0278982  18.7363319  96.7606895  68.8748252  18.3070001  97.6427189
  69.6635110  17.3380493  99.3947761  70.4827999  17.8324572  99.4182598
  69.9371918  16.4212461  99.3665329  79.4201706   9.7291245  88.7575717
  78.5327561  10.0140896  88.5395911  79.8355695   9.5685009  87.9102993
  67.4285957  24.3098996  93.8447161  67.2940425  23.5499397  93.2785159
  67.0118019  25.0339896  93.3775950  78.5644920  19.4935920  82.8523737
  79.2680770  19.6985922  83.4681392  77.8407569  20.0612682  83.1172820
  79.3942730  15.2445781  88.9726007  79.3377932  15.7014333  88.1333639
  79.9471073  14.4836466  88.7948849  83.2047536  11.0335513  89.7976126
  82.9484470  10.6332149  90.6284334  82.5800404  11.7479307  89.6726265
  70.5855083  25.2068313  94.0565604  70.4687467  26.1513746  93.9544294
  69.7647529  24.9041875  94.4451403  80.4731617  19.9318449  84.9022197
  81.3077221  19.4999648  84.7199671  80.3115960  19.7600463  85.8299091
  80.1277509  16.4350563  86.2678536  80.0726313  16.2694834  85.3266980
  79.5023565  17.1426595  86.4240726  73.4373635   5.9358672  85.8463854
  73.4252305   6.8800511  86.0032125  74.3297057   5.7528817  85.5523315
  71.6109597  25.8596575  97.2721532  72.5136844  25.8920186  97.5888027
  71.3846967  24.9297026  97.2867868  73.3663199  24.6127562  93.9331611
  72.4158830  24.6129424  93.8195983  73.6695685  23.8660296  93.4167646
  89.1015892  30.4488100  94.9977373  89.7394302  30.3294848  94.2940713
  88.9836735  31.3968944  95.0565325  85.9105599  30.4015528  94.9338898
  85.5724110  30.2856593  94.0459433  86.7795367  30.0006693  94.9139904
  81.7692414  32.2551005  90.9235789  81.2057279  32.1640942  90.1552077
  81.6544809  31.4350909  91.4038281  79.3156846  33.7502196  93.7620009
  80.1078138  33.4093021  93.3466309  79.5553496  33.8597171  94.6822163
  87.3491973  35.9221973  86.2350254  86.6979953  36.5076053  85.8484268
  88.1436336  36.4528167  86.2945291  81.2747600  33.0111110  86.6337388
  82.0478476  32.4640097  86.4950264  81.6272999  33.8755359  86.8451850
  83.1132643  34.3387492  99.8404288  82.8222509  35.2433123  99.7250954
  83.7489627  34.3804020 100.5548357  84.0388850  31.7164340  96.4305647
  84.6352422  31.4920363  95.7162610  84.0963821  30.9749086  97.0331095
  83.6113878  29.1703776  84.2655838  83.8639399  28.6485297  83.5039301
  82.6738437  29.0069921  84.3682522  88.6557161  28.1739554  92.0730581
  89.4420250  27.7558977  91.7220998  88.9195865  29.0785646  92.2412230
  88.8267238  33.6112404  86.7719238  88.1913071  33.6847031  87.4840143
  88.4964645  34.2006003  86.0938317  83.3310167  31.0731882  86.4680213
  83.2146425  30.3976785  87.1361297  83.4412427  30.5864256  85.6512366
  85.6741708  30.5342029  90.1726902  85.3099915  30.0072650  90.8839824
  86.5308824  30.1440498  89.9993388  85.3147195  25.5631929  85.1688251
  85.4821597  26.4312165  85.5358722  85.1244364  25.7259210  84.2449540
  88.0722528  34.0248907  96.8354081  87.7723251  34.9273946  96.7269888
  87.7273587  33.7581091  97.6875234  81.5235009  30.4762704  92.8690786
  80.5985506  30.3438918  93.0768477  81.7719423  31.2556924  93.3660728
  85.2936416  28.0189586  86.1534918  85.1736041  28.4646637  86.9920398
  84.5989004  28.3674904  85.5948456  78.8843820  30.1195978  93.7034575
  79.0136202  30.3730457  94.6173986  78.2041272  30.7123686  93.3839230
  83.0543308  40.7893228  89.8025049  82.9767337  41.7401053  89.8813529
  82.4504951  40.4439100  90.4599975  90.9921482  28.4911059  86.9815252
  91.9039338  28.7238446  86.8062949  90.4831129  29.0748103  86.4190330
  83.8006910  30.7706547 102.0204383  84.5421594  31.3091591 101.7439206
  83.0943895  31.3972835 102.1775935  85.6293319  27.8508294  97.9910101
  86.4754515  28.2747707  98.1344750  85.5691957  27.1941918  98.6848664
  89.5991064  33.4736878  94.3728833  88.9699926  33.6382592  93.6704901
  89.2116726  33.8878487  95.1439797  93.4780296  34.4091316  91.7273197
  92.7931334  34.7890217  91.1770230  93.5624145  35.0186642  92.4605145
  88.3357456  24.6669095  95.2305113  87.4741936  24.9650349  95.5221850
  88.3619891  24.8839494  94.2986145  85.1519026  33.2111286  91.6378918
  85.6157371  33.4898989  90.8483541  84.8875824  32.3094730  91.4552009
  82.0443107  32.7582767  94.5758682  82.6144464  33.1870036  93.9376166
  82.6351219  32.4765352  95.2742867  84.0887912  29.3334438  88.4468483
  84.7911955  29.7855482  88.9142410  83.7568540  28.6918257  89.0748377
  77.8313246  27.5917991  93.7485617  77.0412300  27.8475519  93.2725728
  78.3224493  28.4066329  93.8537658  91.8477055  34.9323230  96.4990898
  92.6694499  34.5303417  96.2173579  91.8439458  34.8291464  97.4507014
  79.7827991  27.9562570  90.7069094  78.9859155  28.0681264  91.2252589
  79.5553583  28.2949222  89.8409984  85.6133659  34.4807273  98.6551608
  85.6778091  34.9427681  99.4909780  84.9044583  33.8504638  98.7833918
  76.1150949  27.8448481  96.1800608  76.3658987  28.7295491  96.4458184
  76.6510497  27.6653083  95.4075700  85.3281677  36.1475381  88.5230589
  85.1927351  36.9926916  88.9515436  85.8691489  36.3494658  87.7596522
  78.7811074  33.6650819  89.0958514  79.2935595  34.4594069  89.2464078
  79.4333787  32.9677109  89.0292115  80.5905959  36.7816575  91.1781267
  80.7672587  37.7034540  90.9902251  81.3862792  36.4674994  91.6075647
  79.8758315  28.8281207 101.0543430  79.7611830  27.9266464 101.3550529
  79.0202833  29.0744904 100.7028247  86.9550153  36.7698947 102.6530931
  86.5114007  35.9835326 102.3351835  87.6167367  36.9578098 101.9874822
  81.7137274  38.2994749  97.1791609  82.2644699  38.1711812  96.4068603
  80.8748750  38.5989638  96.8286502  89.0531391  37.0501747 100.6812332
  89.0349866  37.8710628 100.1892601  89.9751311  36.9255822 100.9062473
  85.5104445  34.5645877 101.5235840  86.0432782  33.8034165 101.2935148
  84.9818526  34.2719528 102.2659995  76.7459991  31.9939473  89.8718084
  77.5835213  32.4036481  89.6551792  76.9238258  31.0538915  89.8418278
  88.6424423  29.6614554  85.5601917  88.1271046  30.4319158  85.7990305
  88.3701731  28.9879690  86.1834979  86.2271534  24.5064255  90.6187156
  85.3713130  24.1171105  90.4392794  86.6398486  24.5856215  89.7586941
  84.0013566  22.1249328  94.0244897  84.8666563  21.9292136  93.6650787
  84.0691075  21.8959679  94.9514254  93.6158697  32.4146908  87.4955091
  92.8388140  32.0758068  87.0510253  94.2950178  32.4199532  86.8210056
  88.4310726  27.5341646  87.3861698  88.1260862  27.8487795  88.2371842
  89.3841168  27.6123066  87.4289031  86.8757158  33.6931869  89.0354652
  86.3478519  32.9584629  88.7227890  86.3744661  34.4706546  88.7894621
  91.8550004  31.8880890  94.1521699  91.1973678  32.5780151  94.2401827
  92.6590403  32.2777322  94.4955685  81.6075885  24.3551535  91.3961264
  82.1819637  24.1326717  90.6634457  82.1946868  24.4240230  92.1489865
  90.6655463  30.2425262  92.2025640  91.1787344  30.8755254  92.7047350
  91.3156687  29.6426458  91.8369000  81.9345473  26.3855996  85.4157149
  81.0982785  26.7230683  85.7366424  81.7950242  26.2504976  84.4784286
  83.9098553  21.2292784  90.1236333  83.2562966  20.9141802  89.4992948
  83.8679027  20.6068525  90.8496156  85.0209758  31.5112079  82.0389625
  84.1136820  31.2801333  82.2380774  85.5180790  30.7149699  82.2263607
  87.9277837  40.2209587  84.9586312  87.2539536  40.5241283  85.5671269
  88.3143659  41.0238667  84.6091769  87.1436294  27.7174718  94.4483981
  86.2258855  27.9389665  94.2905669  87.5596437  27.7921028  93.5895688
  87.9271341  29.1166134  89.5786661  88.6743160  29.6287531  89.2693783
  88.1962931  28.7950186  90.4391055  86.1997991  31.6124674  86.5613615
  85.2909211  31.3283707  86.6586085  86.2293075  32.0323753  85.7016922
  91.4317259  35.2231264  90.3304783  90.9779586  34.3822174  90.3869974
  90.8011226  35.8592662  90.6679563  90.3750178  26.1523250  91.5605451
  89.6372935  25.6400636  91.8915693  90.6276952  25.7123631  90.7488727
  89.8750198  37.0607760  91.2654601  90.1673173  37.6212818  90.5466967
  90.3848819  37.3536321  92.0207760  76.7686162  29.3330188  90.5428818
  76.5710562  28.7399549  89.8179884  76.2132826  29.0282399  91.2604756
  84.7482886  29.2253295  92.6623411  84.8031495  28.2727131  92.5865887
  83.9374088  29.3812734  93.1464709  85.8974079  33.1533418  83.9001694
  85.4593509  32.4369277  83.4407331  86.6384520  33.3809533  83.3386785
  82.6875245  27.8430355  90.4213790  81.8743111  28.1424525  90.8278982
  83.1834240  27.4486043  91.1388272  84.8383823  37.8388112  92.3548054
  84.7960002  38.0648958  91.4256586  85.7546522  37.6051486  92.5033856
  94.0147194  31.4290615  89.9578013  93.8765093  31.6192211  89.0299202
  93.6583413  32.1909998  90.4146064  82.1789320  25.4148710  96.0375025
  82.8188700  25.2737469  95.3397988  81.3466851  25.1283224  95.6613627
  82.9549624  34.7151141  92.1510017  83.7490223  34.2201461  91.9492592
  82.2441316  34.1869004  91.7877723  87.7744469  37.0969236  96.5022385
  87.8281491  37.6660172  97.2700101  86.9059250  37.2671121  96.1376422
  79.2632388  28.8594222  88.2269770  78.3329976  28.7978678  88.4439732
  79.3589860  28.3370175  87.4306411  79.1817937  25.3849035  90.8148011
  79.4424754  26.2994368  90.7057172  80.0035109  24.9173478  90.9644624
  80.6542862  26.7986792  97.9846836  81.3265915  26.5904154  97.3359485
  79.8272648  26.6008878  97.5452068  86.7332568  31.2629498  98.0609317
  87.6624628  31.4140658  97.8878284  86.3123598  31.3513519  97.2057963
  85.5320900  35.2880163  95.8307854  85.3931986  34.9198947  96.7033792
  84.7435496  35.8027802  95.6591812  86.1269052  40.3889259  87.1733391
  86.3020808  39.9177302  87.9879013  85.4401840  41.0155025  87.4014651
  87.0826115  34.6661765  93.2196692  86.7475948  34.6262535  94.1154342
  86.5830061  34.0006481  92.7467102  81.0570359  30.0729395  98.7449273
  80.9190157  29.3409634  99.3460812  81.9675283  29.9838295  98.4633461
  90.0185307  32.0117800  83.4933752  89.4014478  31.2864628  83.3966804
  89.5501795  32.7727160  83.1500826  83.6852660  29.7849355  98.2332953
  84.3952278  29.1442547  98.1919571  83.6421968  30.0362249  99.1559134
  82.3981594  26.7714572 100.0528592  81.8618951  26.3205311 100.7050189
  81.8098302  26.9060481  99.3099057  80.6930137  43.5378622  93.9473251
  80.9326736  44.1697146  94.6252269  79.8499334  43.1866662  94.2338610
  81.8083853  26.2303224  82.6155056  80.9313319  26.1092025  82.2517303
  82.2841606  25.4389302  82.3633945  73.3285993  31.0180384  92.7096563
  74.0157033  30.7042114  92.1217578  73.1734122  31.9221748  92.4363814
  78.1320715  25.9070580  97.1381587  78.0478904  25.2996250  96.4031997
  77.3103421  26.3979599  97.1391083  85.2057999  39.3457744  96.3514755
  85.1328171  40.1512716  96.8634059  84.7635392  39.5449710  95.5262776
  84.9947779  38.5829514  89.8617576  84.2115301  39.1251194  89.9555801
  85.6940524  39.1003494  90.2611818  88.3044429  24.3924144  92.5051782
  88.8013128  23.6394106  92.1852852  87.5331410  24.4288460  91.9394991
  87.6656683  39.2444578  98.5072914  88.3784655  39.8792043  98.4348815
  87.1746711  39.3408444  97.6912915  89.3874210  33.1495831  90.0790205
  88.4530488  33.2697293  89.9094910  89.5650878  32.2468298  89.8150215
  84.8879398  26.5341527  92.2323466  84.5177185  25.9812567  92.9204372
  85.3838490  25.9299660  91.6798466  92.7746761  28.9913150  90.6140239
  93.2407213  29.8241142  90.5400542  93.2254261  28.5258132  91.3185498
  82.7168596  36.9939022  99.3278484  83.4178056  37.6275505  99.4807879
  82.2463711  37.3353753  98.5674124  90.8422992  35.3356972  87.6126391
  91.1182836  35.2213566  88.5220265  89.9727491  34.9374456  87.5738564
  87.4777056  39.5843322  91.2559205  87.6599451  38.7664978  91.7186957
  88.3010042  39.8011015  90.8184095  87.8119222  38.5111507  88.5174254
  88.3406988  38.0003962  87.9044416  88.0747441  38.1954038  89.3819787
  78.3136314  36.5275377  96.2609587  78.8989751  35.7819065  96.3937491
  78.1161153  36.8379333  97.1446251  81.1674970  39.5626624  91.2772029
  80.4985345  40.0472752  90.7936069  81.0287839  39.8095845  92.1915408
  72.9053969  29.0980977  94.9814030  72.9438069  28.5644568  95.7751148
  72.3994262  28.5716183  94.3625007  85.3080238  41.5970368  97.8754688
  85.8598546  41.7601989  98.6403773  85.6486432  42.1874806  97.2034713
  80.2844731  23.9445517  98.4776573  80.3486058  24.8060348  98.0653970
  80.2211852  23.3319519  97.7448931  76.5362547  27.8245079  88.0567962
  76.8315988  26.9155758  88.0035015  75.6350582  27.8032819  87.7348964
  88.4448625  39.5452343  94.8618370  88.3199765  38.7442083  94.3529315
  89.1027717  40.0398537  94.3732340  80.0656794  25.9001076  94.0395510
  79.3443379  26.5137043  93.9002983  80.8550049  26.4358841  93.9612156
  90.5083534  37.3461363  96.4897920  89.5613869  37.2266714  96.4176247
  90.8566307  36.4583861  96.5724181  78.2650388  25.5059177  88.1807287
  77.9363094  24.6256556  87.9982393  78.6189759  25.4506846  89.0683676
  87.5129967  37.1414080  92.6902272  87.3654930  36.2130787  92.8709842
  88.3383461  37.1634170  92.2059348  81.3792211  25.7932147  88.5482764
  81.7188284  26.3218068  87.8261373  81.8264332  26.1312553  89.3241331
  91.1164089  37.9642638  93.7767145  92.0410636  37.7585500  93.6391596
  90.9479392  37.7159039  94.6856487  84.0735652  24.1769197  97.9985832
  83.7332473  23.3777010  98.4006512  83.3674658  24.4770908  97.4262666
  83.3660359  24.2906768  86.7476057  84.0868721  24.6688021  86.2439774
  82.7425663  25.0095645  86.8511035  87.5091481  24.9951917  87.6834390
  87.7255096  25.8776555  87.3823218  87.0285549  24.6038131  86.9540032
  82.2490703  27.9537630  94.2605134  82.1035284  28.2677933  95.1529416
  81.7715906  28.5722531  93.7076033  84.1087086  24.9440178  94.3086024
  84.0948654  24.0481272  93.9718322  84.8259514  24.9510842  94.9424310
  85.9613216  25.3777519  96.3539151  85.7030994  26.2994589  96.3523482
  85.4298257  24.9807953  97.0439615  90.9059405  38.4828306  89.1329236
  91.0796283  37.9174728  88.3803089  91.3988296  39.2829201  88.9508726
  76.7236365  30.4942975  97.1992795  76.1789833  31.2702783  97.3313070
  77.6015715  30.8413779  97.0411917  83.5123982  23.8254559  89.5773594
  83.6339893  22.8971205  89.7764481  83.2226024  23.8393245  88.6651909
  86.3815172  21.5109469  92.7140314  86.4036869  21.5748802  91.7592293
  86.7983231  20.6713978  92.9080820  96.7598796  31.2464729  90.7519536
  97.2029942  30.4972054  90.3538659  95.8825307  31.2374865  90.3693268
  91.8934578  37.7995070  86.2326135  92.5885482  38.4201763  86.4513449
  92.2357728  36.9490421  86.5078513  77.5102387  29.6212871 100.0922952
  76.7684123  29.7695506 100.6787583  77.1895131  29.8821137  99.2289702
  93.7926001  35.2494776  87.7613466  94.3177325  35.5882048  87.0362786
  93.7048353  34.3141791  87.5776600  85.4546049  39.1628849  99.8903342
  85.7633176  38.9177996 100.7626042  86.2521531  39.3675488  99.4022212
  85.4766662  41.3166759  92.1208719  85.0371652  40.8243138  92.8141575
  86.2274778  40.7739727  91.8800794  77.9559000  37.5078300  92.1233347
  78.7817020  37.2082072  91.7431990  77.6053052  36.7385922  92.5723135
  82.9240534  36.8604768  94.1931020  82.3020543  36.1975473  93.8933248
  83.5945401  36.8865900  93.5104668  76.1567606  35.4264626  93.0822280
  75.3199514  34.9986801  92.9006282  76.1291251  35.6197070  94.0193072
  82.4854041  35.4108691  87.6689481  82.6342161  36.0944156  87.0156154
  83.2920484  35.3913781  88.1838937  96.3031661  32.7169967  93.1441984
  97.1378552  33.1559771  93.3079544  96.4390790  32.2408620  92.3250230
  80.2406674  31.4373869  88.6750550  79.9952715  30.5336199  88.8730760
  80.4102588  31.4391019  87.7330028  79.5102321  27.1702227  86.1736711
  78.8171566  27.2446582  85.5176747  79.2654073  26.4062570  86.6958228
  85.9849446  37.9056822  85.1401228  85.4123413  38.5247009  84.6871700
  86.5582240  38.4556183  85.6741150  89.2046706  38.1893972  86.2709811
  90.1377379  38.1239534  86.4742686  89.1169919  39.0250239  85.8124343
  91.8334723  37.5059842  83.2313758  91.7548354  37.1719706  84.1249516
  92.6544389  37.9981610  83.2305231  86.3696245  29.2417635  82.4817281
  87.3155349  29.1123843  82.5505699  85.9910490  28.5032296  82.9586709
  84.5539162  27.1667611  82.4172166  83.6470617  26.8700724  82.4934880
  84.8315143  26.8697429  81.5506452  75.4717102  28.4873974  92.8671212
  75.1519886  27.6339283  92.5745586  74.9250530  28.7022552  93.6229180
  79.2497010  31.2036415  96.5840719  79.4683019  32.1353523  96.6028753
  79.6622784  30.8444390  97.3695523  86.1701227  21.7104501  88.5716407
  85.3601956  21.3651586  88.9471653  86.8585644  21.4012044  89.1604019
  88.0991776  20.7882547  90.1940704  88.6522814  21.2078001  90.8530727
  88.3361862  19.8618296  90.2363660  83.3237946  24.0254546  82.5584145
  84.1857110  24.3509444  82.8179963  83.5088291  23.2386042  82.0457211
  75.3405362  32.1076886  94.8364334  74.6468834  31.6930839  94.3234288
  76.0878353  32.1497422  94.2397753  91.4770583  22.8983073  89.7019368
  90.8969252  23.5567877  89.3197421  91.2106516  22.0760417  89.2906786
  77.2542105  32.0395140  92.7130349  77.2312793  32.1382827  91.7612232
  77.5642741  32.8860290  93.0347515  79.9129483  34.0971295  96.8276963
  80.8672736  34.0655237  96.7606895  79.7142006  33.6361918  97.6427189
  80.5028865  32.6672411  99.3947761  81.3221754  33.1616489  99.4182598
  80.7765672  31.7504379  99.3665329  90.2595461  25.0583163  88.7575717
  89.3721316  25.3432814  88.5395911  90.6749450  24.8976926  87.9102993
  78.2679711  39.6390914  93.8447161  78.1334179  38.8791315  93.2785159
  77.8511774  40.3631814  93.3775950  89.4038674  34.8227838  82.8523737
  90.1074524  35.0277840  83.4681392  88.6801323  35.3904600  83.1172820
  90.2336485  30.5737699  88.9726007  90.1771686  31.0306250  88.1333639
  90.7864827  29.8128384  88.7948849  94.0441291  26.3627431  89.7976126
  93.7878225  25.9624066  90.6284334  93.4194159  27.0771225  89.6726265
  81.4248837  40.5360231  94.0565604  81.3081221  41.4805664  93.9544294
  80.6041283  40.2333793  94.4451403  91.3125372  35.2610367  84.9022197
  92.1470976  34.8291565  84.7199671  91.1509715  35.0892381  85.8299091
  90.9671264  31.7642480  86.2678536  90.9120068  31.5986752  85.3266980
  90.3417319  32.4718513  86.4240726  75.7563779  27.0010545 100.0939958
  76.4022643  26.4909499 100.5827183  75.5480930  27.7379226 100.6683383
  84.2767389  21.2650589  85.8463854  84.2646059  22.2092429  86.0032125
  85.1690811  21.0820735  85.5523315  82.4503351  41.1888493  97.2721532
  83.3530598  41.2212103  97.5888027  82.2240721  40.2588944  97.2867868
  84.2056953  39.9419480  93.9331611  83.2552584  39.9421341  93.8195983
  84.5089439  39.1952214  93.4167646  88.0919509  17.8593366  90.1009791
  87.3251905  17.3051853  90.2466473  88.5030214  17.9315235  90.9623943
  99.9409647  45.7780018  94.9977373 100.5788057  45.6586765  94.2940713
  99.8230490  46.7260862  95.0565325  96.7499353  45.7307446  94.9338898
  96.4117865  45.6148511  94.0459433  97.6189121  45.3298611  94.9139904
  92.6086169  47.5842922  90.9235789  92.0451034  47.4932859  90.1552077
  92.4938564  46.7642827  91.4038281  90.1550601  49.0794114  93.7620009
  90.9471893  48.7384939  93.3466309  90.3947251  49.1889089  94.6822163
  98.1885728  51.2513890  86.2350254  97.5373707  51.8367971  85.8484268
  98.9830090  51.7820085  86.2945291  92.1141355  48.3403027  86.6337388
  92.8872231  47.7932014  86.4950264  92.4666754  49.2047277  86.8451850
  93.9526397  49.6679410  99.8404288  93.6616263  50.5725040  99.7250954
  94.5883382  49.7095937 100.5548357  94.8782604  47.0456258  96.4305647
  95.4746176  46.8212281  95.7162610  94.9357576  46.3041004  97.0331095
  94.4507633  44.4995693  84.2655838  94.7033153  43.9777215  83.5039301
  93.5132192  44.3361839  84.3682522  99.4950915  43.5031472  92.0730581
 100.2814005  43.0850895  91.7220998  99.7589620  44.4077564  92.2412230
  99.6660993  48.9404322  86.7719238  99.0306826  49.0138949  87.4840143
  99.3358399  49.5297921  86.0938317  94.1703921  46.4023799  86.4680213
  94.0540179  45.7268703  87.1361297  94.2806181  45.9156173  85.6512366
  96.5135462  45.8633947  90.1726902  96.1493669  45.3364567  90.8839824
  97.3702578  45.4732416  89.9993388  96.1540949  40.8923846  85.1688251
  96.3215352  41.7604083  85.5358722  95.9638118  41.0551128  84.2449540
  98.9116282  49.3540825  96.8354081  98.6117005  50.2565864  96.7269888
  98.5667342  49.0873008  97.6875234  92.3628764  45.8054622  92.8690786
  91.4379260  45.6730836  93.0768477  92.6113177  46.5848841  93.3660728
  96.1330170  43.3481504  86.1534918  96.0129795  43.7938554  86.9920398
  95.4382758  43.6966821  85.5948456  89.7237575  45.4487896  93.7034575
  89.8529956  45.7022374  94.6173986  89.0435026  46.0415604  93.3839230
  93.8937062  56.1185145  89.8025049  93.8161092  57.0692971  89.8813529
  93.2898706  55.7731018  90.4599975 101.8315236  43.8202977  86.9815252
 102.7433092  44.0530364  86.8062949 101.3224883  44.4040021  86.4190330
  94.6400664  46.0998464 102.0204383  95.3815349  46.6383508 101.7439206
  93.9337650  46.7264753 102.1775935  96.4687074  43.1800211  97.9910101
  97.3148269  43.6039625  98.1344750  96.4085712  42.5233836  98.6848664
 100.4384818  48.8028795  94.3728833  99.8093681  48.9674509  93.6704901
 100.0510481  49.2170405  95.1439797 104.3174050  49.7383233  91.7273197
 103.6325089  50.1182135  91.1770230 104.4017900  50.3478560  92.4605145
  99.1751211  39.9961013  95.2305113  98.3135690  40.2942266  95.5221850
  99.2013646  40.2131412  94.2986145  95.9912780  48.5403203  91.6378918
  96.4551126  48.8190906  90.8483541  95.7269578  47.6386648  91.4552009
  92.8836861  48.0874685  94.5758682  93.4538219  48.5161953  93.9376166
  93.4744973  47.8057270  95.2742867  94.9281666  44.6626356  88.4468483
  95.6305710  45.1147399  88.9142410  94.5962295  44.0210175  89.0748377
  88.6707000  42.9209908  93.7485617  87.8806054  43.1767437  93.2725728
  89.1618248  43.7358246  93.8537658 102.6870810  50.2615148  96.4990898
 103.5088254  49.8595335  96.2173579 102.6833213  50.1583382  97.4507014
  90.6221746  43.2854488  90.7069094  89.8252909  43.3973182  91.2252589
  90.3947338  43.6241140  89.8409984  96.4527413  49.8099191  98.6551608
  96.5171846  50.2719598  99.4909780  95.7438337  49.1796556  98.7833918
  86.9544703  43.1740399  96.1800608  87.2052742  44.0587409  96.4458184
  87.4904252  42.9945000  95.4075700  96.1675431  51.4767298  88.5230589
  96.0321106  52.3218834  88.9515436  96.7085244  51.6786576  87.7596522
  89.6204828  48.9942736  89.0958514  90.1329349  49.7885987  89.2464078
  90.2727541  48.2969027  89.0292115  91.4299713  52.1108493  91.1781267
  91.6066341  53.0326457  90.9902251  92.2256547  51.7966912  91.6075647
  90.7152070  44.1573125 101.0543430  90.6005585  43.2558382 101.3550529
  89.8596587  44.4036821 100.7028247  92.5531029  53.6286667  97.1791609
  93.1038454  53.5003730  96.4068603  91.7142505  53.9281556  96.8286502
  96.3498200  49.8937794 101.5235840  96.8826536  49.1326083 101.2935148
  95.8212281  49.6011446 102.2659995  87.5853745  47.3231391  89.8718084
  88.4228967  47.7328399  89.6551792  87.7632013  46.3830833  89.8418278
  99.4818177  44.9906471  85.5601917  98.9664801  45.7611076  85.7990305
  99.2095486  44.3171608  86.1834979  97.0665288  39.8356172  90.6187156
  96.2106885  39.4463023  90.4392794  97.4792240  39.9148133  89.7586941
  94.8407321  37.4541245  94.0244897  95.7060318  37.2584054  93.6650787
  94.9084830  37.2251597  94.9514254 104.4552451  47.7438826  87.4955091
 103.6781894  47.4049986  87.0510253 105.1343932  47.7491449  86.8210056
  99.2704481  42.8633564  87.3861698  98.9654616  43.1779713  88.2371842
 100.2234923  42.9414983  87.4289031  97.7150912  49.0223787  89.0354652
  97.1872274  48.2876546  88.7227890  97.2138415  49.7998463  88.7894621
 102.6943758  47.2172807  94.1521699 102.0367433  47.9072069  94.2401827
 103.4984158  47.6069239  94.4955685  92.4469640  39.6843453  91.3961264
  93.0213392  39.4618635  90.6634457  93.0340622  39.7532148  92.1489865
 101.5049217  45.5717180  92.2025640 102.0181099  46.2047172  92.7047350
 102.1550441  44.9718376  91.8369000  92.7739227  41.7147914  85.4157149
  91.9376539  42.0522601  85.7366424  92.6343997  41.5796894  84.4784286
  94.7492308  36.5584702  90.1236333  94.0956720  36.2433719  89.4992948
  94.7072782  35.9360442  90.8496156  95.8603513  46.8403997  82.0389625
  94.9530574  46.6093251  82.2380774  96.3574545  46.0441616  82.2263607
  98.7671591  55.5501504  84.9586312  98.0933290  55.8533201  85.5671269
  99.1537413  56.3530585  84.6091769  97.9830048  43.0466636  94.4483981
  97.0652609  43.2681583  94.2905669  98.3990192  43.1212946  93.5895688
  98.7665096  44.4458051  89.5786661  99.5136915  44.9579448  89.2693783
  99.0356685  44.1242104  90.4391055  97.0391746  46.9416592  86.5613615
  96.1302965  46.6575625  86.6586085  97.0686830  47.3615671  85.7016922
 102.2711013  50.5523181  90.3304783 101.8173340  49.7114091  90.3869974
 101.6404980  51.1884580  90.6679563 101.2143933  41.4815167  91.5605451
 100.4766690  40.9692554  91.8915693 101.4670706  41.0415549  90.7488727
 100.7143953  52.3899678  91.2654601 101.0066927  52.9504735  90.5466967
 101.2242573  52.6828239  92.0207760  87.6079916  44.6622106  90.5428818
  87.4104316  44.0691467  89.8179884  87.0526580  44.3574316  91.2604756
  95.5876640  44.5545213  92.6623411  95.6425250  43.6019049  92.5865887
  94.7767842  44.7104652  93.1464709  96.7367834  48.4825336  83.9001694
  96.2987264  47.7661195  83.4407331  97.4778275  48.7101450  83.3386785
  93.5269000  43.1722272  90.4213790  92.7136865  43.4716443  90.8278982
  94.0227994  42.7777961  91.1388272  95.6777578  53.1680029  92.3548054
  95.6353757  53.3940876  91.4256586  96.5940277  52.9343404  92.5033856
 104.8540949  46.7582533  89.9578013 104.7158847  46.9484129  89.0299202
 104.4977167  47.5201915  90.4146064  93.0183075  40.7440628  96.0375025
  93.6582454  40.6029387  95.3397988  92.1860605  40.4575141  95.6613627
  93.7943379  50.0443058  92.1510017  94.5883977  49.5493378  91.9492592
  93.0835071  49.5160921  91.7877723  98.6138223  52.4261154  96.5022385
  98.6675245  52.9952090  97.2700101  97.7453004  52.5963039  96.1376422
  90.1026142  44.1886140  88.2269770  89.1723730  44.1270595  88.4439732
  90.1983614  43.6662093  87.4306411  90.0211691  40.7140953  90.8148011
  90.2818508  41.6286286  90.7057172  90.8428863  40.2465395  90.9644624
  91.4936616  42.1278710  97.9846836  92.1659670  41.9196072  97.3359485
  90.6666403  41.9300796  97.5452068  97.5726323  46.5921416  98.0609317
  98.5018383  46.7432575  97.8878284  97.1517353  46.6805437  97.2057963
  96.3714655  50.6172080  95.8307854  96.2325740  50.2490865  96.7033792
  95.5829251  51.1319720  95.6591812  96.9662807  55.7181177  87.1733391
  97.1414562  55.2469220  87.9879013  96.2795595  56.3446943  87.4014651
  97.9219870  49.9953683  93.2196692  97.5869702  49.9554453  94.1154342
  97.4223815  49.3298399  92.7467102  91.8964114  45.4021313  98.7449273
  91.7583912  44.6701552  99.3460812  92.8069037  45.3130213  98.4633461
 100.8579061  47.3409717  83.4933752 100.2408232  46.6156545  83.3966804
 100.3895550  48.1019078  83.1500826  94.5246414  45.1141272  98.2332953
  95.2346033  44.4734464  98.1919571  94.4815723  45.3654167  99.1559134
  93.2375348  42.1006490 100.0528592  92.7012705  41.6497229 100.7050189
  92.6492057  42.2352399  99.3099057  91.5323892  58.8670539  93.9473251
  91.7720490  59.4989064  94.6252269  90.6893088  58.5158579  94.2338610
  92.6477607  41.5595142  82.6155056  91.7707074  41.4383942  82.2517303
  93.1235360  40.7681220  82.3633945  84.1679747  46.3472301  92.7096563
  84.8550787  46.0334031  92.1217578  84.0127876  47.2513666  92.4363814
  88.9714470  41.2362498  97.1381587  88.8872658  40.6288167  96.4031997
  88.1497176  41.7271516  97.1391083  96.0451754  54.6749662  96.3514755
  95.9721925  55.4804633  96.8634059  95.6029147  54.8741628  95.5262776
  95.8341533  53.9121432  89.8617576  95.0509055  54.4543112  89.9555801
  96.5334279  54.4295412  90.2611818  99.1438183  39.7216061  92.5051782
  99.6406883  38.9686024  92.1852852  98.3725165  39.7580378  91.9394991
  98.5050437  54.5736496  98.5072914  99.2178409  55.2083961  98.4348815
  98.0140466  54.6700362  97.6912915 100.2267964  48.4787749  90.0790205
  99.2924243  48.5989211  89.9094910 100.4044633  47.5760215  89.8150215
  95.7273152  41.8633444  92.2323466  95.3570940  41.3104485  92.9204372
  96.2232245  41.2591578  91.6798466 103.6140515  44.3205068  90.6140239
 104.0800968  45.1533059  90.5400542 104.0648016  43.8550049  91.3185498
  93.5562351  52.3230939  99.3278484  94.2571810  52.9567422  99.4807879
  93.0857466  52.6645671  98.5674124 101.6816747  50.6648889  87.6126391
 101.9576590  50.5505484  88.5220265 100.8121245  50.2666374  87.5738564
  98.3170811  54.9135240  91.2559205  98.4993205  54.0956896  91.7186957
  99.1403797  55.1302932  90.8184095  98.6512976  53.8403425  88.5174254
  99.1800743  53.3295880  87.9044416  98.9141196  53.5245955  89.3819787
  89.1530069  51.8567294  96.2609587  89.7383506  51.1110982  96.3937491
  88.9554907  52.1671251  97.1446251  92.0068724  54.8918542  91.2772029
  91.3379099  55.3764669  90.7936069  91.8681594  55.1387762  92.1915408
  83.7447724  44.4272895  94.9814030  83.7831823  43.8936485  95.7751148
  83.2388016  43.9008100  94.3625007  96.1473993  56.9262285  97.8754688
  96.6992301  57.0893907  98.6403773  96.4880186  57.5166723  97.2034713
  91.1238486  39.2737435  98.4776573  91.1879812  40.1352266  98.0653970
  91.0605606  38.6611437  97.7448931  87.3756301  43.1536997  88.0567962
  87.6709742  42.2447675  88.0035015  86.4744337  43.1324736  87.7348964
  99.2842380  54.8744261  94.8618370  99.1593519  54.0734001  94.3529315
  99.9421471  55.3690454  94.3732340  90.9050548  41.2292993  94.0395510
  90.1837134  41.8428961  93.9002983  91.6943804  41.7650758  93.9612156
 101.3477288  52.6753281  96.4897920 100.4007624  52.5558632  96.4176247
 101.6960061  51.7875779  96.5724181  89.1044143  40.8351094  88.1807287
  88.7756849  39.9548473  87.9982393  89.4583513  40.7798763  89.0683676
  98.3523722  52.4705997  92.6902272  98.2048684  51.5422705  92.8709842
  99.1777215  52.4926088  92.2059348  92.2185966  41.1224064  88.5482764
  92.5582038  41.6509986  87.8261373  92.6658086  41.4604470  89.3241331
 101.9557843  53.2934556  93.7767145 102.8804391  53.0877417  93.6391596
 101.7873147  53.0450957  94.6856487  94.9129407  39.5061115  97.9985832
  94.5726227  38.7068928  98.4006512  94.2068413  39.8062826  97.4262666
  94.2054113  39.6198686  86.7476057  94.9262476  39.9979939  86.2439774
  93.5819417  40.3387563  86.8511035  98.3485236  40.3243835  87.6834390
  98.5648850  41.2068473  87.3823218  97.8679303  39.9330048  86.9540032
  93.0884457  43.2829548  94.2605134  92.9429038  43.5969851  95.1529416
  92.6109661  43.9014448  93.7076033  94.9480840  40.2732096  94.3086024
  94.9342409  39.3773189  93.9718322  95.6653268  40.2802760  94.9424310
  96.8006971  40.7069436  96.3539151  96.5424749  41.6286507  96.3523482
  96.2692011  40.3099871  97.0439615 101.7453160  53.8120223  89.1329236
 101.9190037  53.2466646  88.3803089 102.2382051  54.6121118  88.9508726
  87.5630119  45.8234892  97.1992795  87.0183588  46.5994700  97.3313070
  88.4409469  46.1705697  97.0411917  94.3517736  39.1546476  89.5773594
  94.4733647  38.2263123  89.7764481  94.0619778  39.1685162  88.6651909
  97.2208926  36.8401387  92.7140314  97.2430623  36.9040720  91.7592293
  97.6376985  36.0005895  92.9080820 102.7328332  53.1286988  86.2326135
 103.4279237  53.7493680  86.4513449 103.0751482  52.2782339  86.5078513
  88.3496141  44.9504789 100.0922952  87.6077877  45.0987424 100.6787583
  88.0288886  45.2113054  99.2289702 104.6319755  50.5786693  87.7613466
 105.1571079  50.9173966  87.0362786 104.5442108  49.6433709  87.5776600
  96.2939804  54.4920767  99.8903342  96.6026930  54.2469914 100.7626042
  97.0915286  54.6967405  99.4022212  96.3160416  56.6458677  92.1208719
  95.8765406  56.1535055  92.8141575  97.0668533  56.1031644  91.8800794
  88.7952755  52.8370217  92.1233347  89.6210775  52.5373989  91.7431990
  88.4446807  52.0677840  92.5723135  93.7634288  52.1896686  94.1931020
  93.1414297  51.5267391  93.8933248  94.4339155  52.2157818  93.5104668
  86.9961360  50.7556544  93.0822280  86.1593268  50.3278718  92.9006282
  86.9685005  50.9488987  94.0193072  93.3247795  50.7400609  87.6689481
  93.4735915  51.4236073  87.0156154  94.1314239  50.7205699  88.1838937
  91.0800428  46.7665787  88.6750550  90.8346470  45.8628117  88.8730760
  91.2496343  46.7682937  87.7330028  90.3496076  42.4994144  86.1736711
  89.6565321  42.5738499  85.5176747  90.1047827  41.7354488  86.6958228
  96.8243201  53.2348739  85.1401228  96.2517168  53.8538927  84.6871700
  97.3975994  53.7848101  85.6741150 100.0440460  53.5185890  86.2709811
 100.9771134  53.4531451  86.4742686  99.9563673  54.3542156  85.8124343
 102.6728477  52.8351760  83.2313758 102.5942109  52.5011624  84.1249516
 103.4938144  53.3273528  83.2305231  97.2089999  44.5709552  82.4817281
  98.1549104  44.4415760  82.5505699  96.8304244  43.8324214  82.9586709
  95.3932916  42.4959529  82.4172166  94.4864372  42.1992641  82.4934880
  95.6708897  42.1989347  81.5506452  86.3110857  43.8165892  92.8671212
  85.9913641  42.9631200  92.5745586  85.7644285  44.0314470  93.6229180
  90.0890764  46.5328333  96.5840719  90.3076774  47.4645441  96.6028753
  90.5016538  46.1736307  97.3695523  97.0094982  37.0396418  88.5716407
  96.1995710  36.6943503  88.9471653  97.6979399  36.7303962  89.1604019
  98.9385530  36.1174465  90.1940704  99.4916569  36.5369919  90.8530727
  99.1755617  35.1910213  90.2363660  94.1631701  39.3546464  82.5584145
  95.0250865  39.6801362  82.8179963  94.3482045  38.5677960  82.0457211
  86.1799117  47.4368804  94.8364334  85.4862588  47.0222756  94.3234288
  86.9272108  47.4789340  94.2397753 102.3164337  38.2274990  89.7019368
 101.7363006  38.8859794  89.3197421 102.0500270  37.4052335  89.2906786
  88.0935859  47.3687057  92.7130349  88.0706547  47.4674745  91.7612232
  88.4036496  48.2152208  93.0347515  90.7523237  49.4263212  96.8276963
  91.7066491  49.3947155  96.7606895  90.5535761  48.9653836  97.6427189
  91.3422619  47.9964328  99.3947761  92.1615508  48.4908407  99.4182598
  91.6159427  47.0796296  99.3665329 101.0989215  40.3875081  88.7575717
 100.2115070  40.6724731  88.5395911 101.5143204  40.2268844  87.9102993
  89.1073466  54.9682832  93.8447161  88.9727934  54.2083233  93.2785159
  88.6905528  55.6923732  93.3775950 100.2432429  50.1519755  82.8523737
 100.9468279  50.3569758  83.4681392  99.5195078  50.7196517  83.1172820
 101.0730239  45.9029617  88.9726007 101.0165441  46.3598168  88.1333639
 101.6258582  45.1420301  88.7948849 104.8835045  41.6919348  89.7976126
 104.6271979  41.2915984  90.6284334 104.2587913  42.4063142  89.6726265
  92.2642592  55.8652149  94.0565604  92.1474976  56.8097581  93.9544294
  91.4435038  55.5625710  94.4451403 102.1519126  50.5902285  84.9022197
 102.9864730  50.1583483  84.7199671 101.9903469  50.4184298  85.8299091
 101.8065018  47.0934398  86.2678536 101.7513822  46.9278669  85.3266980
 101.1811074  47.8010431  86.4240726  86.5957533  42.3302462 100.0939958
  87.2416397  41.8201416 100.5827183  86.3874685  43.0671144 100.6683383
  95.1161144  36.5942507  85.8463854  95.1039814  37.5384347  86.0032125
  96.0084566  36.4112652  85.5523315  93.2897106  56.5180411  97.2721532
  94.1924353  56.5504021  97.5888027  93.0634476  55.5880862  97.2867868
  95.0450708  55.2711397  93.9331611  94.0946339  55.2713259  93.8195983
  95.3483194  54.5244132  93.4167646  98.9313263  33.1885283  90.1009791
  98.1645659  32.6343770  90.2466473  99.3423968  33.2607152  90.9623943
 103.4479923  62.9134840  90.9235789 102.8844788  62.8224777  90.1552077
 103.3332318  62.0934745  91.4038281 102.9535109  63.6694945  86.6337388
 103.7265985  63.1223932  86.4950264 103.3060508  64.5339194  86.8451850
 105.2901387  59.8287611  84.2655838 105.5426908  59.3069132  83.5039301
 104.3525946  59.6653757  84.3682522 105.0097676  61.7315717  86.4680213
 104.8933934  61.0560620  87.1361297 105.1199936  61.2448091  85.6512366
 103.2022518  61.1346540  92.8690786 102.2773015  61.0022754  93.0768477
 103.4506932  61.9140759  93.3660728 100.5631329  60.7779813  93.7034575
 100.6923711  61.0314292  94.6173986  99.8828781  61.3707521  93.3839230
 105.7675421  59.9918273  88.4468483 106.4699464  60.4439317  88.9142410
 105.4356049  59.3502092  89.0748377  99.5100755  58.2501826  93.7485617
  98.7199809  58.5059355  93.2725728 100.0012002  59.0650164  93.8537658
 101.4615500  58.6146405  90.7069094 100.6646664  58.7265100  91.2252589
 101.2341092  58.9533058  89.8409984  97.7938458  58.5032317  96.1800608
  98.0446496  59.3879327  96.4458184  98.3298006  58.3236918  95.4075700
 100.4598583  64.3234654  89.0958514 100.9723103  65.1177904  89.2464078
 101.1121296  63.6260945  89.0292115  98.4247500  62.6523308  89.8718084
  99.2622722  63.0620317  89.6551792  98.6025767  61.7122751  89.8418278
 105.6801075  52.7833163  94.0244897 106.5454072  52.5875972  93.6650787
 105.7478584  52.5543515  94.9514254 103.2863394  55.0135371  91.3961264
 103.8607146  54.7910552  90.6634457 103.8734377  55.0824065  92.1489865
 103.6132982  57.0439832  85.4157149 102.7770294  57.3814518  85.7366424
 103.4737751  56.9088812  84.4784286 105.5886062  51.8876620  90.1236333
 104.9350475  51.5725637  89.4992948 105.5466536  51.2652360  90.8496156
  98.4473671  59.9914024  90.5428818  98.2498071  59.3983384  89.8179884
  97.8920335  59.6866234  91.2604756 106.4270395  59.8837130  92.6623411
 106.4819004  58.9310967  92.5865887 105.6161597  60.0396569  93.1464709
 104.3662754  58.5014190  90.4213790 103.5530620  58.8008361  90.8278982
 104.8621749  58.1069879  91.1388272 103.8576829  56.0732546  96.0375025
 104.4976209  55.9321305  95.3397988 103.0254360  55.7867059  95.6613627
 100.9419897  59.5178058  88.2269770 100.0117485  59.4562513  88.4439732
 101.0377369  58.9954010  87.4306411 100.8605446  56.0432871  90.8148011
 101.1212263  56.9578204  90.7057172 101.6822618  55.5757313  90.9644624
 103.4871362  56.8887059  82.6155056 102.6100828  56.7675860  82.2517303
 103.9629115  56.0973138  82.3633945  95.0073502  61.6764219  92.7096563
  95.6944542  61.3625949  92.1217578  94.8521631  62.5805584  92.4363814
  99.8108224  56.5654416  97.1381587  99.7266413  55.9580085  96.4031997
  98.9890930  57.0563434  97.1391083  94.5841478  59.7564812  94.9814030
  94.6225578  59.2228403  95.7751148  94.0781771  59.2300018  94.3625007
 101.9632240  54.6029353  98.4776573 102.0273567  55.4644184  98.0653970
 101.8999361  53.9903355  97.7448931  98.2150056  58.4828915  88.0567962
  98.5103497  57.5739593  88.0035015  97.3138091  58.4616654  87.7348964
 101.7444303  56.5584911  94.0395510 101.0230888  57.1720879  93.9002983
 102.5337558  57.0942676  93.9612156  99.9437897  56.1643012  88.1807287
  99.6150603  55.2840391  87.9982393 100.2977268  56.1090681  89.0683676
 103.0579720  56.4515982  88.5482764 103.3975793  56.9801903  87.8261373
 103.5051841  56.7896388  89.3241331 105.0447868  54.9490604  86.7476057
 105.7656230  55.3271856  86.2439774 104.4213172  55.6679480  86.8511035
 103.9278212  58.6121466  94.2605134 103.7822792  58.9261769  95.1529416
 103.4503415  59.2306366  93.7076033 105.7874595  55.6024014  94.3086024
 105.7736163  54.7065107  93.9718322 106.5047023  55.6094677  94.9424310
 105.1911491  54.4838394  89.5773594 105.3127402  53.5555040  89.7764481
 104.9013533  54.4977080  88.6651909 104.1641550  66.0692527  87.6689481
 104.3129670  66.7527991  87.0156154 104.9707993  66.0497617  88.1838937
 101.9194183  62.0957704  88.6750550 101.6740224  61.1920034  88.8730760
 102.0890097  62.0974855  87.7330028 101.1889830  57.8286062  86.1736711
 100.4959075  57.9030417  85.5176747 100.9441582  57.0646406  86.6958228
 106.2326671  57.8251446  82.4172166 105.3258126  57.5284559  82.4934880
 106.5102652  57.5281264  81.5506452  97.1504611  59.1457810  92.8671212
  96.8307395  58.2923118  92.5745586  96.6038039  59.3606388  93.6229180
 105.0025455  54.6838382  82.5584145 105.8644619  55.0093280  82.8179963
 105.1875800  53.8969877  82.0457211  97.0192871  62.7660721  94.8364334
  96.3256343  62.3514674  94.3234288  97.7665862  62.8081258  94.2397753
  98.9329614  62.6978975  92.7130349  98.9100302  62.7966662  91.7612232
  99.2430250  63.5444126  93.0347515  69.8536384   5.2148827  80.6718558
  70.0932982   5.8467351  81.3497576  69.0105581   4.8636867  80.9583917
  81.7692416   9.2613127  77.6481096  81.2057281   9.1703064  76.8797383
  81.6544811   8.4413032  78.1283588  79.3156848  10.7564319  80.4865316
  80.1078139  10.4155144  80.0711615  79.5553498  10.8659294  81.4067469
  87.3491974  12.9284095  72.9595561  86.6979954  13.5138176  72.5729574
  88.1436337  13.4590290  73.0190598  81.2747601  10.0173232  73.3582695
  82.0478477   9.4702219  73.2195571  81.6273000  10.8817482  73.5697156
  83.1132644  11.3449615  86.5649594  82.8222510  12.2495245  86.4496260
  83.7489628  11.3866142  87.2793664  84.0388851   8.7226463  83.1550954
  84.6352423   8.4982485  82.4407917  84.0963822   7.9811209  83.7576402
  88.8267239  10.6174527  73.4964545  88.1913072  10.6909154  74.2085449
  88.4964646  11.2068126  72.8183624  88.0722529  11.0311030  83.5599388
  87.7723252  11.9336069  83.4515195  87.7273589  10.7643213  84.4120541
  81.5235011   7.4824827  79.5936092  80.5985507   7.3501041  79.8013784
  81.7719424   8.2619046  80.0906035  78.8843822   7.1258100  80.4279881
  79.0136203   7.3792579  81.3419293  78.2041273   7.7185808  80.1084536
  83.0543309  17.7955350  76.5270356  82.9767339  18.7463175  76.6058836
  82.4504952  17.4501223  77.1845282  89.5991065  10.4799000  81.0974140
  88.9699928  10.6444714  80.3950208  89.2116727  10.8940610  81.8685104
  93.4780297  11.4153438  78.4518504  92.7931335  11.7952339  77.9015537
  93.5624146  12.0248765  79.1850451  85.1519027  10.2173408  78.3624225
  85.6157373  10.4961111  77.5728847  84.8875825   9.3156853  78.1797316
  82.0443108   9.7644890  81.3003988  82.6144465  10.1932158  80.6621473
  82.6351220   9.4827475  81.9988174  91.8477057  11.9385353  83.2236204
  92.6694500  11.5365540  82.9418886  91.8439460  11.8353587  84.1752320
  85.6133660  11.4869396  85.3796915  85.6778093  11.9489803  86.2155087
  84.9044584  10.8566761  85.5079225  85.3281678  13.1537503  75.2475895
  85.1927353  13.9989039  75.6760743  85.8691490  13.3556781  74.4841829
  78.7811075  10.6712941  75.8203820  79.2935596  11.4656192  75.9709385
  79.4333788   9.9739232  75.7537422  80.5905960  13.7878698  77.9026574
  80.7672588  14.7096662  77.7147557  81.3862793  13.4737117  78.3320953
  86.9550154  13.7761070  89.3776237  86.5114008  12.9897448  89.0597142
  87.6167368  13.9640220  88.7120128  81.7137275  15.3056871  83.9036916
  82.2644700  15.1773935  83.1313910  80.8748751  15.6051760  83.5531809
  89.0531392  14.0563870  87.4057639  89.0349868  14.8772751  86.9137908
  89.9751312  13.9317945  87.6307780  85.5104446  11.5707999  88.2481147
  86.0432783  10.8096287  88.0180455  84.9818528  11.2781651  88.9905301
  76.7459992   9.0001596  76.5963391  77.5835214   9.4098604  76.3797099
  76.9238260   8.0601038  76.5663585  86.8757159  10.6993992  75.7599959
  86.3478521   9.9646751  75.4473196  86.3744662  11.4768668  75.5139927
  87.9277838  17.2271709  71.6831618  87.2539537  17.5303406  72.2916576
  88.3143660  18.0300790  71.3337075  91.4317260  12.2293386  77.0550090
  90.9779587  11.3884296  77.1115280  90.8011227  12.8654785  77.3924870
  89.8750199  14.0669883  77.9899908  90.1673174  14.6274940  77.2712273
  90.3848820  14.3598444  78.7453067  76.7686163   6.3392311  77.2674124
  76.5710563   5.7461672  76.5425191  76.2132827   6.0344521  77.9850063
  85.8974081  10.1595541  70.6247001  85.4593510   9.4431399  70.1652638
  86.6384521  10.3871655  70.0632092  84.8383825  14.8450234  79.0793361
  84.7960003  15.0711080  78.1501893  85.7546523  14.6113609  79.2279162
  82.9549625  11.7213263  78.8755324  83.7490224  11.2263583  78.6737899
  82.2441318  11.1931126  78.5123029  87.7744470  14.1031359  83.2267691
  87.8281492  14.6722295  83.9945407  86.9059251  14.2733244  82.8621729
  85.5320901  12.2942285  82.5553161  85.3931987  11.9261070  83.4279099
  84.7435498  12.8089925  82.3837119  86.1269053  17.3951382  73.8978697
  86.3020809  16.9239425  74.7124320  85.4401841  18.0217148  74.1259958
  87.0826117  11.6723888  79.9441999  86.7475949  11.6324658  80.8399649
  86.5830062  11.0068604  79.4712409  80.6930139  20.5440744  80.6718558
  80.9326737  21.1759269  81.3497576  79.8499335  20.1928784  80.9583917
  73.3285994   8.0242506  79.4341870  74.0157034   7.7104236  78.8462885
  73.1734123   8.9283871  79.1609121  85.2058000  16.3519867  83.0760062
  85.1328172  17.1574838  83.5879366  84.7635394  16.5511833  82.2508083
  84.9947780  15.5891637  76.5862883  84.2115302  16.1313317  76.6801108
  85.6940525  16.1065617  76.9857124  87.6656684  16.2506701  85.2318220
  88.3784656  16.8854166  85.1594122  87.1746713  16.3470567  84.4158222
  82.7168598  14.0001144  86.0523791  83.4178057  14.6337627  86.2053185
  82.2463713  14.3415876  85.2919430  90.8422993  12.3419094  74.3371698
  91.1182837  12.2275689  75.2465572  89.9727492  11.9436579  74.2983871
  87.4777057  16.5905445  77.9804512  87.6599452  15.7727101  78.4432264
  88.3010043  16.8073137  77.5429402  87.8119223  15.5173630  75.2419560
  88.3406989  15.0066085  74.6289722  88.0747442  15.2016160  76.1065093
  78.3136316  13.5337499  82.9854894  78.8989752  12.7881187  83.1182798
  78.1161154  13.8441456  83.8691558  81.1674971  16.5688747  78.0017336
  80.4985346  17.0534874  77.5181376  81.0287841  16.8157967  78.9160715
  72.9053970   6.1043100  81.7059337  72.9438070   5.5706690  82.4996455
  72.3994263   5.5778305  81.0870314  85.3080239  18.6032490  84.5999994
  85.8598547  18.7664112  85.3649080  85.6486433  19.1936928  83.9280019
  88.4448627  16.5514466  81.5863677  88.3199766  15.7504206  81.0774622
  89.1027718  17.0460659  81.0977647  90.5083535  14.3523486  83.2143227
  89.5613871  14.2328837  83.1421553  90.8566308  13.4645984  83.2969488
  87.5129968  14.1476202  79.4147579  87.3654931  13.2192910  79.5955149
  88.3383462  14.1696293  78.9304654  91.1164090  14.9704761  80.5012452
  92.0410638  14.7647622  80.3636903  90.9479394  14.7221162  81.4101793
  90.9059406  15.4890428  75.8574543  91.0796284  14.9236851  75.1048396
  91.3988298  16.2891323  75.6754033  76.7236366   7.5005097  83.9238102
  76.1789834   8.2764905  84.0558376  77.6015716   7.8475902  83.7657223
  91.8934579  14.8057193  72.9571441  92.5885484  15.4263885  73.1758756
  92.2357729  13.9552544  73.2323819  77.5102388   6.6274994  86.8168259
  76.7684124   6.7757629  87.4032889  77.1895132   6.8883259  85.9535008
  93.7926002  12.2556898  74.4858772  94.3177326  12.5944171  73.7608092
  93.7048355  11.3203914  74.3021907  85.4546051  16.1690972  86.6148649
  85.7633177  15.9240119  87.4871348  86.2521533  16.3737610  86.1267519
  85.4766663  18.3228882  78.8454025  85.0371653  17.8305260  79.5386882
  86.2274780  17.7801849  78.6046101  77.9559002  14.5140422  78.8478653
  78.7817022  14.2144194  78.4677297  77.6053054  13.7448045  79.2968442
  82.9240535  13.8666891  80.9176327  82.3020544  13.2037596  80.6178555
  83.5945402  13.8928022  80.2349975  76.1567607  12.4326749  79.8067587
  75.3199515  12.0048923  79.6251588  76.1291252  12.6259192  80.7438378
  82.4854042  12.4170814  74.3934788  82.6342162  13.1006278  73.7401460
  83.2920485  12.3975904  74.9084243  80.2406675   8.4435992  75.3995856
  79.9952717   7.5398322  75.5976067  80.4102589   8.4453142  74.4575334
  85.9849447  14.9118944  71.8646535  85.4123414  15.5309132  71.4117007
  86.5582241  15.4618306  72.3986457  89.2046707  15.1956095  72.9955117
  90.1377380  15.1301656  73.1987993  89.1169920  16.0312361  72.5369650
  91.8334724  14.5121965  69.9559065  91.7548355  14.1781828  70.8494823
  92.6544391  15.0043733  69.9550537  79.2497011   8.2098538  83.3086026
  79.4683021   9.1415646  83.3274059  79.6622785   7.8506512  84.0940829
  75.3405363   9.1139008  81.5609641  74.6468835   8.6992961  81.0479595
  76.0878354   9.1559545  80.9643060  77.2542106   9.0457262  79.4375656
  77.2312794   9.1444949  78.4857539  77.5642742   9.8922413  79.7592822
  79.9129484  11.1033417  83.5522270  80.8672737  11.0717360  83.4852202
  79.7142007  10.6424041  84.3672496  80.5028866   9.6734533  86.1193068
  81.3221755  10.1678612  86.1427905  80.7765674   8.7566501  86.0910635
  78.2679713  16.6453037  80.5692468  78.1334181  15.8853438  80.0030466
  77.8511775  17.3693937  80.1021257  89.4038676  11.8289960  69.5769043
  90.1074526  12.0339963  70.1926699  88.6801324  12.3966722  69.8418127
  81.4248838  17.5422354  80.7810911  81.3081223  18.4867786  80.6789601
  80.6041285  17.2395915  81.1696710  91.3125373  12.2672489  71.6267503
  92.1470977  11.8353688  71.4444978  91.1509716  12.0954503  72.5544398
  82.4503353  18.1950616  83.9966839  83.3530599  18.2274226  84.3133334
  82.2240723  17.2651067  84.0113175  84.2056955  16.9481602  80.6576918
  83.2552586  16.9483464  80.5441290  84.5089441  16.2014337  80.1412952
  99.9409648  22.7842141  81.7222680 100.5788058  22.6648888  81.0186020
  99.8230491  23.7322985  81.7810632  96.7499354  22.7369569  81.6584205
  96.4117866  22.6210633  80.7704740  97.6189123  22.3360734  81.6385211
  92.6086170  24.5905045  77.6481096  92.0451035  24.4994982  76.8797383
  92.4938565  23.7704950  78.1283588  90.1550602  26.0856237  80.4865316
  90.9471894  25.7447061  80.0711615  90.3947252  26.1951212  81.4067469
  98.1885729  28.2576013  72.9595561  97.5373709  28.8430093  72.5729574
  98.9830092  28.7882208  73.0190598  92.1141356  25.3465150  73.3582695
  92.8872232  24.7994137  73.2195571  92.4666755  26.2109399  73.5697156
  93.9526399  26.6741532  86.5649594  93.6616264  27.5787163  86.4496260
  94.5883383  26.7158060  87.2793664  94.8782605  24.0518381  83.1550954
  95.4746178  23.8274403  82.4407917  94.9357577  23.3103126  83.7576402
  94.4507634  21.5057816  70.9901145  94.7033154  20.9839337  70.2284608
  93.5132193  21.3423962  71.0927828  99.4950917  20.5093594  78.7975888
 100.2814006  20.0913018  78.4466305  99.7589621  21.4139687  78.9657536
  99.6660994  25.9466445  73.4964545  99.0306827  26.0201071  74.2085449
  99.3358400  26.5360044  72.8183624  94.1703923  23.4085922  73.1925520
  94.0540181  22.7330825  73.8606604  94.2806182  22.9218296  72.3757673
  96.5135463  22.8696069  76.8972209  96.1493671  22.3426690  77.6085130
  97.3702579  22.4794538  76.7238694  96.1540950  17.8985969  71.8933557
  96.3215353  18.7666205  72.2604029  95.9638119  18.0613251  70.9694847
  98.9116284  26.3602948  83.5599388  98.6117007  27.2627987  83.4515195
  98.5667343  26.0935131  84.4120541  92.3628765  22.8116745  79.5936092
  91.4379262  22.6792959  79.8013784  92.6113178  23.5910964  80.0906035
  96.1330171  20.3543626  72.8780224  96.0129796  20.8000677  73.7165705
  95.4382760  20.7028944  72.3193762  89.7237576  22.4550018  80.4279881
  89.8529957  22.7084497  81.3419293  89.0435027  23.0477726  80.1084536
  93.8937063  33.1247268  76.5270356  93.8161093  34.0755093  76.6058836
  93.2898707  32.7793141  77.1845282 101.8315237  20.8265100  73.7060558
 102.7433094  21.0592486  73.5308256 101.3224885  21.4102144  73.1435637
  94.6400665  23.1060587  88.7449689  95.3815350  23.6445631  88.4684513
  93.9337651  23.7326876  88.9021241  96.4687075  20.1862334  84.7155408
  97.3148270  20.6101748  84.8590057  96.4085713  19.5295958  85.4093971
 100.4384820  25.8090918  81.0974140  99.8093682  25.9736632  80.3950208
 100.0510482  26.2232528  81.8685104 104.3174052  26.7445356  78.4518504
 103.6325090  27.1244257  77.9015537 104.4017901  27.3540682  79.1850451
  99.1751212  17.0023135  81.9550419  98.3135691  17.3004389  82.2467157
  99.2013647  17.2193534  81.0231452  95.9912782  25.5465326  78.3624225
  96.4551127  25.8253029  77.5728847  95.7269580  24.6448771  78.1797316
  92.8836863  25.0936808  81.3003988  93.4538220  25.5224076  80.6621473
  93.4744975  24.8119392  81.9988174  94.9281668  21.6688478  75.1713790
  95.6305711  22.1209522  75.6387716  94.5962296  21.0272297  75.7993683
  88.6707002  19.9272031  80.4730924  87.8806056  20.1829560  79.9971034
  89.1618249  20.7420369  80.5782964 102.6870811  27.2677270  83.2236204
 103.5088255  26.8657458  82.9418886 102.6833214  27.1645504  84.1752320
  90.6221747  20.2916610  77.4314400  89.8252910  20.4035305  77.9497896
  90.3947339  20.6303263  76.5655291  96.4527415  26.8161314  85.3796915
  96.5171847  27.2781721  86.2155087  95.7438339  26.1858678  85.5079225
  86.9544705  20.1802522  82.9045914  87.2052743  21.0649531  83.1703490
  87.4904253  20.0007123  82.1321006  96.1675432  28.4829421  75.2475895
  96.0321107  29.3280957  75.6760743  96.7085245  28.6848699  74.4841829
  89.6204830  26.0004859  75.8203820  90.1329350  26.7948109  75.9709385
  90.2727543  25.3031150  75.7537422  91.4299714  29.1170615  77.9026574
  91.6066343  30.0388580  77.7147557  92.2256548  28.8029035  78.3320953
  90.7152071  21.1635247  87.7788737  90.6005586  20.2620504  88.0795836
  89.8596589  21.4098944  87.4273553  97.7943909  29.1052988  89.3776237
  97.3507763  28.3189366  89.0597142  98.4561122  29.2932138  88.7120128
  92.5531030  30.6348789  83.9036916  93.1038455  30.5065852  83.1313910
  91.7142506  30.9343678  83.5531809  99.8925147  29.3855787  87.4057639
  99.8743622  30.2064669  86.9137908 100.8145067  29.2609863  87.6307780
  96.3498201  26.8999917  88.2481147  96.8826538  26.1388205  88.0180455
  95.8212282  26.6073569  88.9905301  87.5853746  24.3293513  76.5963391
  88.4228968  24.7390522  76.3797099  87.7632014  23.3892956  76.5663585
  99.4818179  21.9968594  72.2847224  98.9664802  22.7673199  72.5235611
  99.2095487  21.3233730  72.9080285  97.0665290  16.8418295  77.3432462
  96.2106886  16.4525145  77.1638101  97.4792241  16.9210256  76.4832248
  94.8407322  14.4603368  80.7490204  95.7060319  14.2646176  80.3896093
  94.9084831  14.2313720  81.6759560 104.4552453  24.7500949  74.2200397
 103.6781895  24.4112108  73.7755559 105.1343934  24.7553572  73.5455362
  99.2704482  19.8695686  74.1107005  98.9654617  20.1841835  74.9617148
 100.2234924  19.9477106  74.1534338  97.7150914  26.0285909  75.7599959
  97.1872275  25.2938669  75.4473196  97.2138416  26.8060586  75.5139927
 102.6943760  24.2234930  80.8767005 102.0367434  24.9134191  80.9647134
 103.4984159  24.6131362  81.2200992  92.4469641  16.6905576  78.1206571
  93.0213393  16.4680757  77.3879763  93.0340624  16.7594270  78.8735172
 101.5049218  22.5779303  78.9270947 102.0181100  23.2109294  79.4292657
 102.1550442  21.9780498  78.5614307  92.7739228  18.7210037  72.1402456
  91.9376541  19.0584723  72.4611731  92.6343998  18.5859017  71.2029593
  94.7492309  13.5646825  76.8481640  94.0956721  13.2495842  76.2238255
  94.7072783  12.9422565  77.5741463  95.8603514  23.8466120  68.7634932
  94.9530576  23.6155373  68.9626081  96.3574546  23.0503739  68.9508914
  98.7671593  32.5563627  71.6831618  98.0933291  32.8595324  72.2916576
  99.1537415  33.3592707  71.3337075  97.9830049  20.0528758  81.1729288
  97.0652611  20.2743705  81.0150976  98.3990193  20.1275069  80.3140995
  98.7665097  21.4520174  76.3031968  99.5136916  21.9641571  75.9939090
  99.0356687  21.1304227  77.1636361  97.0391747  23.9478715  73.2858922
  96.1302966  23.6637747  73.3831392  97.0686831  24.3677793  72.4262229
 102.2711015  27.5585304  77.0550090 101.8173342  26.7176214  77.1115280
 101.6404981  28.1946702  77.3924870 101.2143934  18.4877290  78.2850757
 100.4766691  17.9754676  78.6161000 101.4670708  18.0477672  77.4734034
 100.7143954  29.3961801  77.9899908 101.0066928  29.9566858  77.2712273
 101.2242574  29.6890362  78.7453067  87.6079918  21.6684229  77.2674124
  87.4104317  21.0753589  76.5425191  87.0526582  21.3636439  77.9850063
  95.5876641  21.5607335  79.3868717  95.6425251  20.6081172  79.3111194
  94.7767843  21.7166774  79.8710016  96.7367835  25.4887458  70.6247001
  96.2987265  24.7723317  70.1652638  97.4778276  25.7163573  70.0632092
  93.5269001  20.1784395  77.1459096  92.7136867  20.4778565  77.5524288
  94.0227995  19.7840084  77.8633579  95.6777579  30.1742152  79.0793361
  95.6353758  30.4002998  78.1501893  96.5940278  29.9405526  79.2279162
 104.8540950  23.7644655  76.6823319 104.7158848  23.9546251  75.7544508
 104.4977169  24.5264038  77.1391370  93.0183076  17.7502750  82.7620331
  93.6582455  17.6091510  82.0643295  92.1860606  17.4637264  82.3858933
  93.7943380  27.0505181  78.8755324  94.5883978  26.5555501  78.6737899
  93.0835072  26.5223044  78.5123029  98.6138224  29.4323276  83.2267691
  98.6675247  30.0014213  83.9945407  97.7453006  29.6025161  82.8621729
  90.1026143  21.1948263  74.9515076  89.1723731  21.1332718  75.1685039
  90.1983615  20.6724215  74.1551718  90.0211692  17.7203075  77.5393318
  90.2818510  18.6348409  77.4302479  90.8428865  17.2527518  77.6889931
  91.4936618  19.1340833  84.7092143  92.1659671  18.9258195  84.0604792
  90.6666404  18.9362919  84.2697375  97.5726324  23.5983538  84.7854623
  98.5018384  23.7494698  84.6123591  97.1517354  23.6867559  83.9303270
  96.3714656  27.6234203  82.5553161  96.2325742  27.2552987  83.4279099
  95.5829252  28.1381842  82.3837119  96.9662808  32.7243299  73.8978697
  97.1414564  32.2531342  74.7124320  96.2795596  33.3509066  74.1259958
  97.9219871  27.0015806  79.9441999  97.5869704  26.9616576  80.8399649
  97.4223817  26.3360521  79.4712409  91.8964115  22.4083436  85.4694580
  91.7583913  21.6763674  86.0706119  92.8069038  22.3192336  85.1878768
 100.8579063  24.3471840  70.2179058 100.2408233  23.6218668  70.1212111
 100.3895551  25.1081200  69.8746133  94.5246416  22.1203395  84.9578259
  95.2346034  21.4796587  84.9164878  94.4815724  22.3716290  85.8804440
  93.2375350  19.1068613  86.7773899  92.7012707  18.6559351  87.4295495
  92.6492058  19.2414522  86.0344363  91.5323893  35.8732662  80.6718558
  91.7720491  36.5051186  81.3497576  90.6893090  35.5220702  80.9583917
  92.6477609  18.5657264  69.3400363  91.7707075  18.4446065  68.9762609
  93.1235362  17.7743342  69.0879251  84.1679749  23.3534424  79.4341870
  84.8550789  23.0396154  78.8462885  84.0127877  24.2575789  79.1609121
  88.9714471  18.2424620  83.8626893  88.8872660  17.6350290  83.1277303
  88.1497177  18.7333639  83.8636390  96.0451755  31.6811785  83.0760062
  95.9721926  32.4866756  83.5879366  95.6029148  31.8803750  82.2508083
  95.8341535  30.9183555  76.5862883  95.0509056  31.4605235  76.6801108
  96.5334280  31.4357534  76.9857124  99.1438185  16.7278184  79.2297088
  99.6406884  15.9748146  78.9098159  98.3725166  16.7642501  78.6640298
  98.5050438  31.5798619  85.2318220  99.2178411  32.2146083  85.1594122
  98.0140467  31.6762485  84.4158222 100.2267965  25.4849871  76.8035512
  99.2924244  25.6051334  76.6340216 100.4044634  24.5822338  76.5395522
  95.7273153  18.8695567  78.9568773  95.3570941  18.3166607  79.6449679
  96.2232246  18.2653700  78.4043773 103.6140517  21.3267190  77.3385546
 104.0800969  22.1595182  77.2645849 104.0648017  20.8612172  78.0430804
  93.5562352  29.3293062  86.0523791  94.2571812  29.9629545  86.2053185
  93.0857467  29.6707794  85.2919430 101.6816748  27.6711012  74.3371698
 101.9576592  27.5567606  75.2465572 100.8121247  27.2728497  74.2983871
  98.3170812  31.9197363  77.9804512  98.4993206  31.1019019  78.4432264
  99.1403798  32.1365055  77.5429402  98.6512977  30.8465548  75.2419560
  99.1800744  30.3358002  74.6289722  98.9141197  30.5308078  76.1065093
  89.1530070  28.8629417  82.9854894  89.7383507  28.1173105  83.1182798
  88.9554909  29.1733374  83.8691558  92.0068725  31.8980664  78.0017336
  91.3379101  32.3826792  77.5181376  91.8681595  32.1449885  78.9160715
  83.7447725  21.4335017  81.7059337  83.7831824  20.8998608  82.4996455
  83.2388018  20.9070223  81.0870314  96.1473994  33.9324408  84.5999994
  96.6992302  34.0956029  85.3649080  96.4880187  34.5228846  83.9280019
  91.1238487  16.2799558  85.2021879  91.1879814  17.1414389  84.7899277
  91.0605607  15.6673559  84.4694238  87.3756302  20.1599119  74.7813268
  87.6709743  19.2509798  74.7280322  86.4744338  20.1386859  74.4594271
  99.2842381  31.8806383  81.5863677  99.1593521  31.0796123  81.0774622
  99.9421472  32.3752577  81.0977647  90.9050549  18.2355116  80.7640817
  90.1837135  18.8491084  80.6248290  91.6943805  18.7712881  80.6857463
 101.3477290  29.6815404  83.2143227 100.4007625  29.5620755  83.1421553
 101.6960063  28.7937902  83.2969488  89.1044144  17.8413217  74.9052593
  88.7756850  16.9610596  74.7227699  89.4583515  17.7860886  75.7928983
  98.3523723  29.4768120  79.4147579  98.2048685  28.5484827  79.5955149
  99.1777216  29.4988211  78.9304654  92.2185967  18.1286187  75.2728071
  92.5582040  18.6572108  74.5506679  92.6658088  18.4666593  76.0486638
 101.9557845  30.2996679  80.5012452 102.8804392  30.0939540  80.3636903
 101.7873148  30.0513080  81.4101793  94.9129408  16.5123238  84.7231139
  94.5726228  15.7131051  85.1251819  94.2068414  16.8124948  84.1507972
  94.2054114  16.6260808  73.4721364  94.9262477  17.0042061  72.9685081
  93.5819418  17.3449685  73.5756342  98.3485237  17.3305957  74.4079696
  98.5648852  18.2130595  74.1068524  97.8679304  16.9392171  73.6785338
  93.0884459  20.2891671  80.9850441  92.9429039  20.6031974  81.8774722
  92.6109662  20.9076571  80.4321339  94.9480841  17.2794219  81.0331330
  94.9342410  16.3835312  80.6963628  95.6653270  17.2864882  81.6669616
  96.8006972  17.7131559  83.0784458  96.5424750  18.6348630  83.0768788
  96.2692013  17.3161993  83.7684922 101.7453161  30.8182346  75.8574543
 101.9190038  30.2528768  75.1048396 102.2382052  31.6183241  75.6754033
  87.5630121  22.8297015  83.9238102  87.0183589  23.6056823  84.0558376
  88.4409471  23.1767820  83.7657223  94.3517737  16.1608599  76.3018900
  94.4733649  15.2325245  76.5009788  94.0619780  16.1747285  75.3897216
  97.2208928  13.8463509  79.4385620  97.2430625  13.9102842  78.4837600
  97.6376987  13.0068018  79.6326126 102.7328333  30.1349110  72.9571441
 103.4279238  30.7555803  73.1758756 103.0751484  29.2844462  73.2323819
  88.3496143  21.9566911  86.8168259  87.6077879  22.1049547  87.4032889
  88.0288887  22.2175177  85.9535008 104.6319757  27.5848816  74.4858772
 105.1571081  27.9236089  73.7608092 104.5442109  26.6495831  74.3021907
  96.2939805  31.4982890  86.6148649  96.6026932  31.2532036  87.4871348
  97.0915287  31.7029528  86.1267519  96.3160417  33.6520799  78.8454025
  95.8765408  33.1597178  79.5386882  97.0668534  33.1093767  78.6046101
  88.7952756  29.8432340  78.8478653  89.6210776  29.5436112  78.4677297
  88.4446808  29.0739962  79.2968442  93.7634289  29.1958808  80.9176327
  93.1414299  28.5329513  80.6178555  94.4339156  29.2219940  80.2349975
  86.9961361  27.7618667  79.8067587  86.1593270  27.3340841  79.6251588
  86.9685007  27.9551110  80.7438378  93.3247796  27.7462732  74.3934788
  93.4735917  28.4298196  73.7401460  94.1314240  27.7267822  74.9084243
  91.0800429  23.7727909  75.3995856  90.8346471  22.8690239  75.5976067
  91.2496344  23.7745060  74.4575334  90.3496077  19.5056267  72.8982018
  89.6565322  19.5800622  72.2422054  90.1047829  18.7416610  73.4203535
  96.8243202  30.2410862  71.8646535  96.2517169  30.8601049  71.4117007
  97.3975996  30.7910224  72.3986457 100.0440462  30.5248012  72.9955117
 100.9771135  30.4593574  73.1987993  99.9563674  31.3604279  72.5369650
 102.6728478  29.8413883  69.9559065 102.5942110  29.5073746  70.8494823
 103.4938145  30.3335650  69.9550537  97.2090000  21.5771675  69.2062587
  98.1549105  21.4477883  69.2751006  96.8304245  20.8386337  69.6832016
  95.3932918  19.5021651  69.1417473  94.4864373  19.2054764  69.2180186
  95.6708899  19.2051469  68.2751759  86.3110858  20.8228015  79.5916519
  85.9913642  19.9693323  79.2990893  85.7644286  21.0376593  80.3474486
  90.0890765  23.5390456  83.3086026  90.3076775  24.4707563  83.3274059
  90.5016539  23.1798430  84.0940829  97.0094983  14.0458541  75.2961714
  96.1995712  13.7005626  75.6716960  97.6979400  13.7366085  75.8849326
  94.1631702  16.3608586  69.2829452  95.0250866  16.6863485  69.5425269
  94.3482046  15.5740082  68.7702518  86.1799118  24.4430926  81.5609641
  85.4862589  24.0284879  81.0479595  86.9272109  24.4851463  80.9643060
 102.3164339  15.2337113  76.4264675 101.7363008  15.8921917  76.0442727
 102.0500271  14.4114457  76.0152092  88.0935860  24.3749180  79.4375656
  88.0706549  24.4736867  78.4857539  88.4036497  25.2214331  79.7592822
  90.7523238  26.4325335  83.5522270  91.7066492  26.4009277  83.4852202
  90.5535762  25.9715959  84.3672496  91.3422620  25.0026451  86.1193068
  92.1615509  25.4970530  86.1427905  91.6159428  24.0858419  86.0910635
 101.0989217  17.3937203  75.4821023 100.2115072  17.6786854  75.2641218
 101.5143206  17.2330967  74.6348300  89.1073467  31.9744954  80.5692468
  88.9727935  31.2145355  80.0030466  88.6905529  32.6985854  80.1021257
 100.2432430  27.1581878  69.5769043 100.9468280  27.3631880  70.1926699
  99.5195079  27.7258640  69.8418127 101.0730240  22.9091739  75.6971313
 101.0165442  23.3660291  74.8578946 101.6258583  22.1482424  75.5194156
 104.8835046  18.6981471  76.5221433 104.6271981  18.2978107  77.3529641
 104.2587914  19.4125265  76.3971572  92.2642593  32.8714271  80.7810911
  92.1474977  33.8159704  80.6789601  91.4435039  32.5687833  81.1696710
 102.1519127  27.5964407  71.6267503 102.9864731  27.1645606  71.4444978
 101.9903470  27.4246421  72.5544398 101.8065020  24.0996520  72.9923843
 101.7513823  23.9340792  72.0512287 101.1811075  24.8072553  73.1486032
  86.5957535  19.3364585  86.8185265  87.2416398  18.8263539  87.3072490
  86.3874686  20.0733266  87.3928690  95.1161145  13.6004629  72.5709161
  95.1039815  14.5446469  72.7277432  96.0084567  13.4174775  72.2768622
  93.2897107  33.5242533  83.9966839  94.1924354  33.5566144  84.3133334
  93.0634477  32.5942984  84.0113175  95.0450709  32.2773520  80.6576918
  94.0946340  32.2775381  80.5441290  95.3483195  31.5306254  80.1412952
 103.4479925  39.9196963  77.6481096 102.8844790  39.8286900  76.8797383
 103.3332320  39.0996867  78.1283588 100.9944356  41.4148154  80.4865316
 101.7865648  41.0738979  80.0711615 101.2341007  41.5243129  81.4067469
 102.9535110  40.6757068  73.3582695 103.7265986  40.1286055  73.2195571
 103.3060509  41.5401317  73.5697156 104.7920153  42.0033450  86.5649594
 104.5010019  42.9079081  86.4496260 105.4277137  42.0449977  87.2793664
 105.7176360  39.3810298  83.1550954 106.3139932  39.1566321  82.4407917
 105.7751331  38.6395044  83.7576402 105.2901388  36.8349734  70.9901145
 105.5426909  36.3131255  70.2284608 104.3525947  36.6715879  71.0927828
 105.0097677  38.7377840  73.1925520 104.8933935  38.0622743  73.8606604
 105.1199937  38.2510214  72.3757673 103.2022520  38.1408662  79.5936092
 102.2773016  38.0084876  79.8013784 103.4506933  38.9202881  80.0906035
 100.5631331  37.7841936  80.4279881 100.6923712  38.0376415  81.3419293
  99.8828782  38.3769644  80.1084536 104.7330818  48.4539186  76.5270356
 104.6554848  49.4047011  76.6058836 104.1292461  48.1085058  77.1845282
 105.4794420  38.4352505  88.7449689 106.2209104  38.9737548  88.4684513
 104.7731405  39.0618793  88.9021241 103.7230617  40.4228725  81.3003988
 104.2931974  40.8515994  80.6621473 104.3138729  40.1411310  81.9988174
 105.7675422  36.9980396  75.1713790 106.4699466  37.4501440  75.6387716
 105.4356051  36.3564215  75.7993683  99.5100756  35.2563949  80.4730924
  98.7199810  35.5121477  79.9971034 100.0012004  36.0712287  80.5782964
 101.4615502  35.6208528  77.4314400 100.6646665  35.7327222  77.9497896
 101.2341094  35.9595180  76.5655291  97.7938459  35.5094439  82.9045914
  98.0446498  36.3941449  83.1703490  98.3298008  35.3299041  82.1321006
 100.4598584  41.3296777  75.8203820 100.9723105  42.1240027  75.9709385
 101.1121297  40.6323067  75.7537422 102.2693469  44.4462533  77.9026574
 102.4460097  45.3680498  77.7147557 103.0650302  44.1320952  78.3320953
 101.5545825  36.4927165  87.7788737 101.4399341  35.5912422  88.0795836
 100.6990343  36.7390862  87.4273553 103.3924784  45.9640707  83.9036916
 103.9432209  45.8357770  83.1313910 102.5536260  46.2635596  83.5531809
  98.4247501  39.6585431  76.5963391  99.2622723  40.0682439  76.3797099
  98.6025769  38.7184873  76.5663585 105.6801077  29.7895285  80.7490204
 106.5454073  29.5938094  80.3896093 105.7478586  29.5605637  81.6759560
 103.2863396  32.0197493  78.1206571 103.8607148  31.7972675  77.3879763
 103.8734378  32.0886188  78.8735172 103.6132983  34.0501954  72.1402456
 102.7770295  34.3876641  72.4611731 103.4737752  33.9150934  71.2029593
 105.5886063  28.8938742  76.8481640 104.9350476  28.5787759  76.2238255
 105.5466538  28.2714483  77.5741463  98.4473672  36.9976146  77.2674124
  98.2498072  36.4045507  76.5425191  97.8920336  36.6928357  77.9850063
 106.4270396  36.8899253  79.3868717 106.4819006  35.9373089  79.3111194
 105.6161598  37.0458692  79.8710016 104.3662756  35.5076313  77.1459096
 103.5530621  35.8070483  77.5524288 104.8621750  35.1132001  77.8633579
 103.8576830  33.0794668  82.7620331 104.4976210  32.9383427  82.0643295
 103.0254361  32.7929181  82.3858933 104.6337134  42.3797099  78.8755324
 105.4277733  41.8847419  78.6737899 103.9228827  41.8514962  78.5123029
 100.9419898  36.5240180  74.9515076 100.0117486  36.4624636  75.1685039
 101.0377370  36.0016133  74.1551718 100.8605447  33.0494993  77.5393318
 101.1212264  33.9640326  77.4302479 101.6822619  32.5819436  77.6889931
 102.3330372  34.4632750  84.7092143 103.0053426  34.2550112  84.0604792
 101.5060159  34.2654836  84.2697375 102.7357869  37.7375353  85.4694580
 102.5977667  37.0055592  86.0706119 103.6462793  37.6484253  85.1878768
 105.3640170  37.4495313  84.9578259 106.0739789  36.8088505  84.9164878
 105.3209478  37.7008207  85.8804440 104.0769104  34.4360530  86.7773899
 103.5406461  33.9851269  87.4295495 103.4885813  34.5706439  86.0344363
 102.3717648  51.2024580  80.6718558 102.6114246  51.8343104  81.3497576
 101.5286844  50.8512620  80.9583917 103.4871363  33.8949182  69.3400363
 102.6100829  33.7737983  68.9762609 103.9629116  33.1035260  69.0879251
  95.0073503  38.6826342  79.4341870  95.6944543  38.3688072  78.8462885
  94.8521632  39.5867706  79.1609121  99.8108225  33.5716538  83.8626893
  99.7266414  32.9642208  83.1277303  98.9890932  34.0625556  83.8636390
 104.3956107  44.6584980  86.0523791 105.0965566  45.2921463  86.2053185
 103.9251222  44.9999711  85.2919430  99.9923825  44.1921335  82.9854894
 100.5777261  43.4465023  83.1182798  99.7948663  44.5025291  83.8691558
 102.8462480  47.2272582  78.0017336 102.1772855  47.7118710  77.5181376
 102.7075349  47.4741803  78.9160715  94.5841479  36.7626935  81.7059337
  94.6225579  36.2290526  82.4996455  94.0781772  36.2362140  81.0870314
 101.9632242  31.6091475  85.2021879 102.0273568  32.4706306  84.7899277
 101.8999362  30.9965477  84.4694238  98.2150057  35.4891037  74.7813268
  98.5103498  34.5801716  74.7280322  97.3138093  35.4678777  74.4594271
 101.7444304  33.5647034  80.7640817 101.0230890  34.1783001  80.6248290
 102.5337560  34.1004798  80.6857463  99.9437898  33.1705135  74.9052593
  99.6150605  32.2902514  74.7227699 100.2977269  33.1152803  75.7928983
 103.0579722  33.4578105  75.2728071 103.3975794  33.9864026  74.5506679
 103.5051842  33.7958511  76.0486638 105.7523162  31.8415155  84.7231139
 105.4119983  31.0422968  85.1251819 105.0462169  32.1416866  84.1507972
 105.0447869  31.9552726  73.4721364 105.7656231  32.3333979  72.9685081
 104.4213173  32.6741603  73.5756342 103.9278213  35.6183588  80.9850441
 103.7822794  35.9323891  81.8774722 103.4503417  36.2368489  80.4321339
 105.7874596  32.6086136  81.0331330 105.7736165  31.7127230  80.6963628
 106.5047024  32.6156800  81.6669616  98.4023875  38.1588933  83.9238102
  97.8577343  38.9348741  84.0558376  99.2803225  38.5059737  83.7657223
 105.1911492  31.4900517  76.3018900 105.3127403  30.5617163  76.5009788
 104.9013534  31.5039203  75.3897216  99.1889897  37.2858829  86.8168259
  98.4471633  37.4341464  87.4032889  98.8682641  37.5467095  85.9535008
  99.6346511  45.1724258  78.8478653 100.4604531  44.8728030  78.4677297
  99.2840563  44.4031880  79.2968442 104.6028044  44.5250726  80.9176327
 103.9808053  43.8621431  80.6178555 105.2732911  44.5511858  80.2349975
  97.8355116  43.0910584  79.8067587  96.9987024  42.6632759  79.6251588
  97.8078761  43.2843028  80.7438378 104.1641551  43.0754649  74.3934788
 104.3129671  43.7590114  73.7401460 104.9707994  43.0559739  74.9084243
 101.9194184  39.1019827  75.3995856 101.6740226  38.1982157  75.5976067
 102.0890098  39.1036977  74.4575334 101.1889831  34.8348185  72.8982018
 100.4959076  34.9092539  72.2422054 100.9441583  34.0708528  73.4203535
 106.2326672  34.8313569  69.1417473 105.3258127  34.5346682  69.2180186
 106.5102653  34.5343387  68.2751759  97.1504612  36.1519932  79.5916519
  96.8307397  35.2985240  79.2990893  96.6038041  36.3668510  80.3474486
 100.9284520  38.8682373  83.3086026 101.1470530  39.7999481  83.3274059
 101.3410294  38.5090348  84.0940829 105.0025457  31.6900504  69.2829452
 105.8644621  32.0155402  69.5425269 105.1875801  30.9032000  68.7702518
  97.0192872  39.7722844  81.5609641  96.3256344  39.3576797  81.0479595
  97.7665863  39.8143380  80.9643060  98.9329615  39.7041098  79.4375656
  98.9100303  39.8028785  78.4857539  99.2430251  40.5506248  79.7592822
 101.5916993  41.7617253  83.5522270 102.5460246  41.7301195  83.4852202
 101.3929516  41.3007876  84.3672496 102.1816375  40.3318369  86.1193068
 103.0009264  40.8262447  86.1427905 102.4553183  39.4150337  86.0910635
  99.9467222  47.3036872  80.5692468  99.8121689  46.5437273  80.0030466
  99.5299284  48.0277772  80.1021257 103.1036347  48.2006189  80.7810911
 102.9868732  49.1451622  80.6789601 102.2828794  47.8979751  81.1696710
  97.4351289  34.6656503  86.8185265  98.0810153  34.1555456  87.3072490
  97.2268440  35.4025184  87.3928690 104.1290862  48.8534451  83.9966839
 105.0318108  48.8858061  84.3133334 103.9028232  47.9234902  84.0113175
 105.8844464  47.6065438  80.6576918 104.9340095  47.6067299  80.5441290
 106.1876950  46.8598172  80.1412952 105.8467258  54.0118259  79.4341870
 106.5338298  53.6979989  78.8462885 105.6915386  54.9159624  79.1609121
 105.4235234  52.0918853  81.7059337 105.4619333  51.5582443  82.4996455
 104.9175527  51.5654058  81.0870314  91.5323894  12.8794785  67.3963864
  91.7720493  13.5113309  68.0742883  90.6893091  12.5282825  67.6829223
 103.4479926  16.9259085  64.3726402 102.8844791  16.8349022  63.6042690
 103.3332321  16.1058990  64.8528895 100.9944358  18.4210277  67.2110623
 101.7865650  18.0801102  66.7956922 101.2341008  18.5305252  68.1312776
 102.9535112  17.6819190  60.0828001 103.7265988  17.1348177  59.9440877
 103.3060511  18.5463440  60.2942463 104.7920154  19.0095572  73.2894901
 104.5010020  19.9141203  73.1741567 105.4277139  19.0512100  74.0038970
 105.7176361  16.3872421  69.8796260 106.3139933  16.1628443  69.1653223
 105.7751333  15.6457166  70.4821708 103.2022521  15.1470785  66.3181399
 102.2773017  15.0146999  66.5259091 103.4506934  15.9265004  66.8151341
 100.5631332  14.7904058  67.1525188 100.6923713  15.0438537  68.0664600
  99.8828783  15.3831766  66.8329843 104.7330819  25.4601308  63.2515662
 104.6554849  26.4109133  63.3304143 104.1292463  25.1147181  63.9090588
 103.7230618  17.4290848  68.0249295 104.2931976  17.8578116  67.3866779
 104.3138730  17.1473433  68.7233480 100.4598585  18.3358899  62.5449127
 100.9723106  19.1302150  62.6954692 101.1121298  17.6385190  62.4782728
 102.2693470  21.4524656  64.6271880 102.4460098  22.3742620  64.4392864
 103.0650304  21.1383075  65.0566260 103.3924786  22.9702829  70.6282223
 103.9432211  22.8419893  69.8559216 102.5536262  23.2697718  70.2777115
  98.4247502  16.6647554  63.3208698  99.2622724  17.0744562  63.1042405
  98.6025770  15.7246996  63.2908891  98.4473673  14.0038269  63.9919431
  98.2498073  13.4107630  63.2670498  97.8920337  13.6990479  64.7095370
 104.6337136  19.3859221  65.6000630 105.4277734  18.8909541  65.3983205
 103.9228828  18.8577084  65.2368336 102.3717649  28.2086702  67.3963864
 102.6114247  28.8405227  68.0742883 101.5286845  27.8574742  67.6829223
  95.0073504  15.6888464  66.1587176  95.6944544  15.3750194  65.5708192
  94.8521633  16.5929829  65.8854428 104.3956108  21.6647102  72.7769098
 105.0965567  22.2983585  72.9298492 103.9251223  22.0061834  72.0164737
  99.9923826  21.1983457  69.7100200 100.5777263  20.4527145  69.8428105
  99.7948664  21.5087414  70.5936864 102.8462481  24.2334705  64.7262643
 102.1772856  24.7180832  64.2426683 102.7075351  24.4803925  65.6406021
  94.5841481  13.7689058  68.4304643  94.6225580  13.2352648  69.2241762
  94.0781773  13.2424263  67.8115621  98.4023876  15.1651055  70.6483409
  97.8577345  15.9410863  70.7803683  99.2803226  15.5121860  70.4902530
  99.1889898  14.2920952  73.5413565  98.4471634  14.4403587  74.1278196
  98.8682643  14.5529217  72.6780315  99.6346512  22.1786380  65.5723960
 100.4604532  21.8790152  65.1922604  99.2840564  21.4094003  66.0213749
 104.6028045  21.5312849  67.6421634 103.9808054  20.8683554  67.3423862
 105.2732912  21.5573980  66.9595281  97.8355117  20.0972707  66.5312894
  96.9987025  19.6694881  66.3496895  97.8078762  20.2905150  67.4683685
 104.1641552  20.0816772  61.1180094 104.3129672  20.7652236  60.4646767
 104.9707996  20.0621862  61.6329550 101.9194185  16.1081950  62.1241163
 101.6740227  15.2044280  62.3221373 102.0890100  16.1099100  61.1820641
 100.9284521  15.8744496  70.0331332 101.1470531  16.8061604  70.0519366
 101.3410295  15.5152470  70.8186136  97.0192874  16.7784966  68.2854947
  96.3256345  16.3638919  67.7724902  97.7665865  16.8205503  67.6888366
  98.9329616  16.7103220  66.1620962  98.9100304  16.8090907  65.2102845
  99.2430253  17.5568371  66.4838128 101.5916994  18.7679375  70.2767577
 102.5460248  18.7363318  70.2097508 101.3929518  18.3069999  71.0917803
 102.1816376  17.3380491  72.8438374 103.0009265  17.8324570  72.8673212
 102.4553184  16.4212459  72.8155942  99.9467223  24.3098995  67.2937775
  99.8121691  23.5499396  66.7275773  99.5299285  25.0339895  66.8266563
 103.1036349  25.2068312  67.5056217 102.9868733  26.1513744  67.4034907
 102.2828795  24.9041873  67.8942016 104.1290863  25.8596574  70.7212146
 105.0318110  25.8920184  71.0378641 103.9028233  24.9297025  70.7358481
 105.8844465  24.6127560  67.3822224 104.9340096  24.6129422  67.2686596
 106.1876951  23.8660295  66.8658259 105.8467259  31.0180382  66.1587176
 106.5338299  30.7042112  65.5708192 105.6915388  31.9221746  65.8854428
 105.4235235  29.0980975  68.4304643 105.4619335  28.5644566  69.2241762
 104.9175528  28.5716181  67.8115621  37.6365948  52.8351762 109.7823142
  37.5579579  52.5011625 110.6758900  38.4575614  53.3273530 109.7814614
  43.9916953  66.5805810 112.7859638  43.3404932  67.1659890 112.3993651
  44.7861315  67.1112005 112.8454675  37.9172580  63.6694947 113.1846772
  38.6903456  63.1223934 113.0459648  38.2697979  64.5339196 113.3961233
  40.2538858  59.8287613 110.8165222  40.5064378  59.3069134 110.0548685
  39.3163417  59.6653758 110.9191905  45.4692218  64.2696242 113.3228622
  44.8338051  64.3430868 114.0349526  45.1389624  64.8589840 112.6447701
  39.9735146  61.7315719 113.0189597  39.8571404  61.0560622 113.6870681
  40.0837406  61.2448093 112.2021750  42.3166687  61.1925866 116.7236286
  41.9524894  60.6656487 117.4349207  43.1733803  60.8024335 116.5502771
  41.9572174  56.2215766 111.7197634  42.1246577  57.0896002 112.0868106
  41.7669343  56.3843047 110.7958924  41.9361395  58.6773423 112.7044301
  41.8161020  59.1230474 113.5429782  41.2413983  59.0258741 112.1457839
  47.6346461  59.1494896 113.5324635  48.5464317  59.3822283 113.3572333
  47.1256108  59.7331941 112.9699714  40.7312891  59.9918275 114.9977867
  41.4336935  60.4439319 115.4651793  40.3993520  59.3502094 115.6257760
  41.9706656  66.8059218 115.0739972  41.8352331  67.6510754 115.5024820
  42.5116469  67.0078496 114.3105906  35.4236053  64.3234656 115.6467897
  35.9360574  65.1177906 115.7973462  36.0758766  63.6260946 115.5801499
  45.2849402  60.3198391 112.1111301  44.7696026  61.0902996 112.3499688
  45.0126711  59.6463527 112.7344362  50.2583677  63.0730746 114.0464474
  49.4813119  62.7341905 113.6019636  50.9375157  63.0783369 113.3719439
  45.0735706  58.1925483 113.9371082  44.7685841  58.5071632 114.7881225
  46.0266148  58.2706903 113.9798415  43.5182137  64.3515706 115.5864036
  42.9903499  63.6168466 115.2737273  43.0169640  65.1290383 115.3404004
  38.5770452  57.0439834 111.9666533  37.7407764  57.3814520 112.2875808
  38.4375222  56.9088813 111.0293670  41.6634738  62.1695917 108.5899009
  40.7561799  61.9385170 108.7890158  42.1605770  61.3733536 108.7772991
  44.5702816  70.8793424 111.5095695  43.8964515  71.1825120 112.1180653
  44.9568638  71.6822504 111.1601152  44.5696321  59.7749971 116.1296045
  45.3168140  60.2871368 115.8203167  44.8387910  59.4534023 116.9900438
  42.8422971  62.2708511 113.1122999  41.9334190  61.9867544 113.2095469
  42.8718055  62.6907590 112.2526306  42.5399059  63.8117255 110.4511078
  42.1018489  63.0953114 109.9916715  43.2809500  64.0393370 109.8896169
  46.6610286  62.6701637 110.0443135  46.0439457  61.9448465 109.9476188
  46.1926775  63.4310997 109.7010210  38.4508832  56.8887061 109.1664440
  37.5738299  56.7675862 108.8026686  38.9266585  56.0973139 108.9143328
  40.0085338  54.9490605 113.2985441  40.7293701  55.3271858 112.7949158
  39.3850642  55.6679482 113.4020419  44.1516461  55.6535754 114.2343773
  44.3680075  56.5360392 113.9332601  43.6710528  55.2621968 113.5049415
  39.1279020  66.0692528 114.2198865  39.2767140  66.7527993 113.5665537
  39.9345464  66.0497619 114.7348320  36.8831653  62.0957706 115.2259933
  36.6377695  61.1920036 115.4240144  37.0527568  62.0974857 114.2839411
  36.1527301  57.8286064 112.7246095  35.4596546  57.9030419 112.0686131
  35.9079053  57.0646407 113.2467612  42.6274426  68.5640659 111.6910612
  42.0548393  69.1830846 111.2381084  43.2007219  69.1140021 112.2250534
  48.4759702  68.1643679 109.7823142  48.3973334  67.8303543 110.6758900
  49.2969369  68.6565447 109.7814614  43.0121224  59.9001472 109.0326664
  43.9580329  59.7707680 109.1015083  42.6335469  59.1616134 109.5096093
  41.1964141  57.8251448 108.9681550  40.2895597  57.5284561 109.0444263
  41.4740122  57.5281266 108.1015836  39.9662926  54.6838383 109.1093529
  40.8282090  55.0093282 109.3689346  40.1513270  53.8969879 108.5966595
  48.1195562  53.5566910 116.2528752  47.5394231  54.2151714 115.8706804
  47.8531495  52.7344254 115.8416169  46.9020440  55.7167000 115.3085100
  46.0146295  56.0016651 115.0905295  47.3174429  55.5560764 114.4612377
  46.0463654  65.4811675 109.4033120  46.7499504  65.6861677 110.0190776
  45.3226303  66.0488437 109.6682204  46.8761464  61.2321536 115.5235390
  46.8196666  61.6890087 114.6843023  47.4289807  60.4712221 115.3458233
  50.6866270  57.0211268 116.3485510  50.4303204  56.6207904 117.1793718
  50.0619138  57.7355062 116.2235649  47.9550351  65.9194204 111.4531580
  48.7895955  65.4875402 111.2709055  47.7934694  65.7476218 112.3808475
  47.6096243  62.4226317 112.8187920  47.5545047  62.2570589 111.8776364
  46.9842299  63.1302350 112.9750109  40.9192369  51.9234426 112.3973238
  40.9071039  52.8676266 112.5541509  41.8115791  51.7404572 112.1032699
  49.2902587  72.2178979 109.1664440  48.4132053  72.0967780 108.8026686
  49.7660340  71.4265057 108.9143328  50.8056680  70.0130301 109.1093529
  51.6675844  70.3385199 109.3689346  50.9907025  69.2261797 108.5966595
  37.6365949  29.8413884  96.5068448  37.5579580  29.5073748  97.4004206
  38.4575616  30.3335652  96.5059921  43.9916954  43.5867932  99.5104944
  43.3404934  44.1722013  99.1238958  44.7861317  44.1174127  99.5699982
  37.9172581  40.6757069  99.9092079  38.6903457  40.1286056  99.7704954
  38.2697980  41.5401319 100.1206540  45.4692219  41.2758364 100.0473928
  44.8338052  41.3492991 100.7594833  45.1389625  41.8651963  99.3693008
  50.6990569  35.7760747 106.2518250  51.4315741  35.2059964 106.4856080
  49.9429924  35.3882348 106.6924756  39.9735148  38.7377841  99.7434903
  39.8571406  38.0622745 100.4115988  40.0837407  38.2510215  98.9267056
  42.3166688  38.1987989 103.4481593  41.9524896  37.6718610 104.1594514
  43.1733804  37.8086458 103.2748078  41.9572175  33.2277888  98.4442941
  42.1246578  34.0958125  98.8113412  41.7669345  33.3905170  97.5204230
  41.9361396  35.6835546  99.4289608  41.8161022  36.1292597 100.2675088
  41.2413985  36.0320863  98.8703146  39.6968288  48.4539188 103.0779739
  39.6192318  49.4047013 103.1568220  39.0929932  48.1085060 103.7354665
  47.6346462  36.1557019 100.2569942  48.5464319  36.3884406 100.0817640
  47.1256110  36.7394063  99.6945021  46.2416045  41.1382837 107.6483523
  45.6124907  41.3028552 106.9459591  45.8541707  41.5524447 108.4194487
  50.1205277  42.0737275 105.0027887  49.4356315  42.4536177 104.4524921
  50.2049126  42.6832602 105.7359835  41.7944007  40.8757245 104.9133609
  42.2582352  41.1544948 104.1238231  41.5300805  39.9740690 104.7306699
  40.7312893  36.9980398 101.7223174  41.4336936  37.4501442 102.1897100
  40.3993521  36.3564217 102.3503067  56.5808029  38.9407938 106.1230560
  55.8271738  38.3715336 105.9674564  56.7155571  38.9070603 107.0701194
  41.9706657  43.8121340 101.7985279  41.8352332  44.6572876 102.2270127
  42.5116470  44.0140618 101.0351213  35.4236055  41.3296779 102.3713204
  35.9360575  42.1240029 102.5218769  36.0758768  40.6323069 102.3046805
  37.2330939  44.4462535 104.4535957  37.4097568  45.3680499 104.2656941
  38.0287773  44.1320954 104.8830337  45.2849404  37.3260513  98.8356607
  44.7696027  38.0965118  99.0744995  45.0126712  36.6525650  99.4589669
  50.2583678  40.0792868 100.7709781  49.4813121  39.7404028 100.3264943
  50.9375159  40.0845491 100.0964746  45.0735707  35.1987606 100.6616389
  44.7685842  35.5133755 101.5126532  46.0266149  35.2769025 100.7043722
  43.5182139  41.3577829 102.3109343  42.9903500  40.6230588 101.9982580
  43.0169641  42.1352505 102.0649311  48.4974985  39.5526849 107.4276389
  47.8398659  40.2426111 107.5156518  49.3015384  39.9423281 107.7710375
  47.3080443  37.9071222 105.4780331  47.8212325  38.5401214 105.9802040
  47.9581667  37.3072418 105.1123691  38.5770453  34.0501956  98.6911839
  37.7407766  34.3876643  99.0121114  38.4375223  33.9150936  97.7538976
  41.6634739  39.1758039  95.3144316  40.7561801  38.9447293  95.5135465
  42.1605771  38.3795658  95.5018297  44.5702818  47.8855546  98.2341002
  43.8964516  48.1887243  98.8425960  44.9568640  48.6884627  97.8846459
  44.5696322  36.7812093 102.8541351  45.3168141  37.2933491 102.5448474
  44.8387912  36.4596146 103.7145745  42.8422972  39.2770634  99.8368306
  41.9334192  38.9929667  99.9340776  42.8718056  39.6969713  98.9771613
  48.0742240  42.8877224 103.6059473  47.6204567  42.0468133 103.6624664
  47.4436206  43.5238622 103.9434253  46.5175179  44.7253720 104.5409291
  46.8098153  45.2858777 103.8221657  47.0273799  45.0182281 105.2962451
  42.5399060  40.8179378  97.1756384  42.1018490  40.1015237  96.7162022
  43.2809501  41.0455493  96.6141476  41.4808804  45.5034071 105.6302745
  41.4384983  45.7294918 104.7011277  42.3971503  45.2697446 105.7788546
  50.6572175  39.0936575 103.2332703  50.5190073  39.2838171 102.3053892
  50.3008394  39.8555958 103.6900754  50.6841554  41.1613102 108.2443974
  51.1178061  41.0688391 109.0927028  51.3973135  41.1370602 107.6063990
  39.5974605  42.3797100 105.4264707  40.3915203  41.8847420 105.2247282
  38.8866297  41.8514963 105.0632413  42.7694033  48.0535219 100.4488081
  42.9445789  47.5823262 101.2633704  42.0826821  48.6800985 100.6769342
  43.7251096  42.3307725 106.4951382  43.3900929  42.2908495 107.3909032
  43.2255042  41.6652441 106.0221793  46.6610288  39.6763759  96.7688442
  46.0439458  38.9510587  96.6721495  46.1926776  40.4373120  96.4255516
  37.3355118  51.2024582 107.2227941  37.5751716  51.8343106 107.9006960
  36.4924315  50.8512622 107.5093300  38.4508834  33.8949184  95.8909746
  37.5738300  33.7737984  95.5271993  38.9266587  33.1035262  95.6388635
  41.8482980  47.0103704 109.6269445  41.7753151  47.8158675 110.1388750
  41.4060373  47.2095670 108.8017467  41.6372760  46.2475474 103.1372267
  40.8540282  46.7897154 103.2310491  42.3365505  46.7649454 103.5366508
  52.7999167  37.7610469 107.4224764  52.7889043  38.6435184 107.0518697
  51.9316547  37.4082020 107.2279301  46.0299190  40.8141791 103.3544896
  45.0955469  40.9343253 103.1849600  46.2075859  39.9114257 103.0904905
  49.4171742  36.6559110 103.8894930  49.8832194  37.4887102 103.8155232
  49.8679242  36.1904092 104.5940188  47.4847973  43.0002931 100.8881082
  47.7607817  42.8859526 101.7974956  46.6152472  42.6020416 100.8493255
  44.1202037  47.2489282 104.5313895  44.3024431  46.4310938 104.9941648
  44.9435023  47.4656974 104.0938785  44.4544202  46.1757467 101.7928944
  44.9831969  45.6649922 101.1799106  44.7172422  45.8599997 102.6574477
  37.8099950  47.2272584 104.5526720  37.1410326  47.7118712 104.0690760
  37.6712820  47.4741804 105.4670098  41.9505219  49.2616327 111.1509378
  42.5023527  49.4247949 111.9158463  42.2911412  49.8520765 110.4789403
  45.0873606  47.2098303 108.1373060  44.9624746  46.4088043 107.6284006
  45.7452697  47.7044496 107.6487030  47.1508515  45.0107323 109.7652610
  46.2038850  44.8912674 109.6930937  47.4991288  44.1229821 109.8478872
  44.1554948  44.8060039 105.9656963  44.0079910  43.8776747 106.1464533
  44.9808441  44.8280130 105.4814038  47.7589070  45.6288598 107.0521835
  48.6835617  45.4231459 106.9146286  47.5904373  45.3804999 107.9611177
  40.0085339  31.9552728 100.0230747  40.7293702  32.3333981  99.5194464
  39.3850643  32.6741605 100.1265725  44.1516462  32.6597877 100.9589080
  44.3680077  33.5422515 100.6577908  43.6710529  32.2684090 100.2294722
  47.5484386  46.1474265 102.4083927  47.7221263  45.5820688 101.6557779
  48.0413277  46.9475160 102.2263417  53.4023777  38.9110688 104.0274227
  53.8454923  38.1618014 103.6293350  52.5250287  38.9020825 103.6447958
  48.5359558  45.4641030  99.5080825  49.2310463  46.0847723  99.7268140
  48.8782709  44.6136381  99.7833203  50.4350982  42.9140735 101.0368156
  50.9602306  43.2528008 100.3117476  50.3473334  41.9787751 100.8531290
  42.1191642  48.9812719 105.3963409  41.6796633  48.4889097 106.0896266
  42.8699759  48.4385686 105.1555484  39.5665514  44.5250728 107.4685711
  38.9445524  43.8621433 107.1687939  40.2370381  44.5511860 106.7859358
  39.1279021  43.0754651 100.9444171  39.2767142  43.7590115 100.2910844
  39.9345465  43.0559741 101.4593627  52.9456642  40.3815927 106.4196674
  53.7803533  40.8205731 106.5834234  53.0815771  39.9054580 105.6004920
  36.8831654  39.1019829 101.9505240  36.6377696  38.1982159 102.1485450
  37.0527569  39.1036979 101.0084718  36.1527302  34.8348186  99.4491402
  35.4596547  34.9092541  98.7931438  35.9079054  34.0708530  99.9712919
  42.6274427  45.5702782  98.4155919  42.0548394  46.1892969  97.9626391
  43.2007221  46.1202143  98.9495841  45.8471687  45.8539932  99.5464501
  46.7802360  45.7885493  99.7497376  45.7594899  46.6896198  99.0879034
  48.4759703  45.1705802  96.5068448  48.3973335  44.8365666  97.4004206
  49.2969370  45.6627570  96.5059921  43.0121225  36.9063594  95.7571971
  43.9580330  36.7769802  95.8260389  42.6335470  36.1678256  96.2341399
  56.9914444  39.0983548 108.8550804  57.7217833  38.8368836 109.4158507
  56.3821390  38.3612270 108.8952872  41.1964143  34.8313571  95.6926856
  40.2895598  34.5346683  95.7689570  41.4740124  34.5343389  94.8261143
  39.9662927  31.6900506  95.8338836  40.8282091  32.0155404  96.0934653
  40.1513271  30.9032002  95.3211901  48.1195564  30.5629032 102.9774059
  47.5394233  31.2213836 102.5952111  47.8531496  29.7406377 102.5661476
  46.9020442  32.7229123 102.0330407  46.0146297  33.0078773 101.8150602
  47.3174431  32.5622886 101.1857684  34.9104692  47.3036874 107.1201852
  34.7759160  46.5437275 106.5539850  34.4936754  48.0277774 106.6530640
  46.0463655  42.4873797  96.1278427  46.7499505  42.6923800  96.7436082
  45.3226304  43.0550559  96.3927510  46.8761465  38.2383659 102.2480697
  46.8196667  38.6952210 101.4088329  47.4289808  37.4774343 102.0703540
  50.6866271  34.0273391 103.0730816  50.4303206  33.6270026 103.9039024
  50.0619139  34.7417184 102.9480956  54.9978609  36.7669464 105.5802108
  54.4378167  36.8362653 106.3533670  54.3922113  36.5910448 104.8601604
  38.0673818  48.2006191 107.3320294  37.9506202  49.1451623 107.2298984
  37.2466264  47.8979752 107.7206093  47.9550353  42.9256327  98.1776887
  48.7895956  42.4937525  97.9954362  47.7934695  42.7538340  99.1053781
  47.6096245  39.4288440  99.5433226  47.5545049  39.2632711  98.6021670
  46.9842300  40.1364473  99.6995416  40.9192370  28.9296549  99.1218545
  40.9071040  29.8738389  99.2786815  41.8115792  28.7466694  98.8278006
  40.8481934  47.6065439 107.2086301  39.8977565  47.6067301 107.0950673
  41.1514420  46.8598174 106.6922336  56.5834628  53.4425978 108.2732064
  57.2213038  53.3232725 107.5695404  56.4655471  54.3906822 108.3320016
  53.3924334  53.3953406 108.2093588  53.0542845  53.2794471 107.3214123
  54.2614102  52.9944571 108.1894594  49.2511150  55.2488882 104.1990479
  48.6876015  55.1578819 103.4306767  49.1363545  54.4288787 104.6792972
  53.8744117  54.5488258 114.1679794  53.8632758  54.1541056 113.2960297
  54.0364756  53.8154330 114.7613565  46.7975582  56.7440074 107.0374700
  47.5896873  56.4030898 106.6220999  47.0372232  56.8535049 107.9576853
  54.8310708  58.9159850  99.5104944  54.1798688  59.5013930  99.1238958
  55.6255071  59.4466045  99.5699982  48.7566335  56.0048987  99.9092079
  49.5297211  55.4577974  99.7704954  49.1091734  56.8693236 100.1206540
  50.5951378  57.3325369 113.1158978  50.3041244  58.2371000 113.0005644
  51.2308362  57.3741897 113.8303047  51.5207585  54.7102218 109.7060337
  52.1171157  54.4858240 108.9917300  51.5782556  53.9686963 110.3085785
  51.0932613  52.1641653  97.5410528  51.3458134  51.6423174  96.7793991
  50.1557172  52.0007799  97.6437212  56.1375896  51.1677432 105.3485272
  56.9238985  50.7496855 104.9975689  56.4014600  52.0723524 105.5166920
  56.3085973  56.6050282 100.0473928  55.6731806  56.6784908 100.7594833
  55.9783380  57.1943881  99.3693008  61.5384323  51.1052665 106.2518250
  62.2709495  50.5351882 106.4856080  60.7823679  50.7174265 106.6924756
  50.8128902  54.0669759  99.7434903  50.6965160  53.3914663 100.4115988
  50.9231162  53.5802133  98.9267056  53.1560443  53.5279906 103.4481593
  52.7918650  53.0010527 104.1594514  54.0127559  53.1378375 103.2748078
  59.0609744  44.8174239 110.7112859  58.7293068  45.6869650 110.4874074
  58.4655357  44.5010523 111.3906889  52.7965930  48.5569806  98.4442941
  52.9640332  49.4250042  98.8113412  52.6063099  48.7197088  97.5204230
  55.5541263  57.0186785 110.1108771  55.2541986  57.9211824 110.0024579
  55.2092323  56.7518968 110.9629924  49.0053745  53.4700582 106.1445476
  48.0804241  53.3376796 106.3523168  49.2538158  54.2494801 106.6415418
  58.9538407  49.5369325 107.7906209  58.0455284  49.4684733 107.4964970
  58.9026003  50.0141270 108.6188034  52.7755151  51.0127463  99.4289608
  52.6554776  51.4584514 100.2675088  52.0807739  51.3612781  98.8703146
  46.3662556  53.1133855 106.9789265  46.4954937  53.3668334 107.8928677
  45.6860007  53.7061563 106.6593920  50.5362043  63.7831105 103.0779739
  50.4586073  64.7338930 103.1568220  49.9323687  63.4376978 103.7354665
  53.0279273  50.9558971 115.7341106  52.2512607  51.5152891 115.7243971
  53.6669836  51.4415754 116.2555976  60.8200053  47.7385763 109.5684083
  60.1774434  48.0318297 108.9223877  60.3154982  47.6238684 110.3737279
  58.4740217  51.4848937 100.2569942  59.3858073  51.7176323 100.0817640
  57.9649864  52.0685981  99.6945021  51.2825645  53.7644424 115.2959073
  52.0240329  54.3029468 115.0193897  50.5762630  54.3910713 115.4530625
  56.7580985  55.9073564 113.8931235  57.1664341  55.4655975 113.1485867
  56.0358246  55.3326192 114.1465427  53.1112055  50.8446171 111.2664792
  53.9573250  51.2685585 111.4099441  53.0510692  50.1879796 111.9603355
  57.0809799  56.4674755 107.6483523  56.4518662  56.6320469 106.9459591
  56.6935461  56.8816365 108.4194487  60.9599031  57.4029193 105.0027887
  60.2750069  57.7828094 104.4524921  61.0442880  58.0124520 105.7359835
  56.2611500  48.5050540 112.9245965  56.0172432  49.2592600 112.3880241
  56.5371431  48.8835887 113.7593212  58.2149963  55.0489152 111.6023231
  58.4266858  55.6920912 110.9257612  58.1679711  54.2151469 111.1345161
  55.8176192  47.6606973 108.5059803  54.9560671  47.9588226 108.7976540
  55.8438626  47.8777371 107.5740836  52.6337761  56.2049163 104.9133609
  53.0976107  56.4836866 104.1238231  52.3694559  55.3032608 104.7306699
  49.5261842  55.7520645 107.8513372  50.0963199  56.1807913 107.2130856
  50.1169954  55.4703229 108.5497557  51.5706647  52.3272316 101.7223174
  52.2730691  52.7793359 102.1897100  51.2387276  51.6856134 102.3503067
  45.3131981  50.5855868 107.0240307  44.5231035  50.8413397 106.5480418
  45.8043229  51.4004206 107.1292348  59.3295791  57.9261107 109.7745588
  60.1513234  57.5241295 109.4928270  59.3258194  57.8229342 110.7261704
  47.2646727  50.9500447 103.9823784  46.4677890  51.0619142 104.5007280
  47.0372319  51.2887100 103.1164674  53.0952394  57.4745151 111.9306299
  53.1596827  57.9365558 112.7664470  52.3863318  56.8442516 112.0588608
  43.5969684  50.8386359 109.4555298  43.8477723  51.7233369 109.7212874
  44.1329233  50.6590960 108.6830390  67.4201784  54.2699856 106.1230560
  66.6665492  53.7007254 105.9674564  67.5549325  54.2362520 107.0701194
  52.8100412  59.1413258 101.7985279  52.6746087  59.9864794 102.2270127
  53.3510224  59.3432536 101.0351213  46.2629809  56.6588696 102.3713204
  46.7754330  57.4531946 102.5218769  46.9152522  55.9614987 102.3046805
  48.0724694  59.7754452 104.4535957  48.2491322  60.6972417 104.2656941
  48.8681527  59.4612872 104.8830337  47.3577050  51.8219084 114.3298120
  47.2430566  50.9204342 114.6305219  46.5021568  52.0682781 113.9782937
  49.1956009  61.2932626 110.4546300  49.7463435  61.1649690 109.6823293
  48.3567485  61.5927515 110.1041192  52.9923180  57.5583754 114.7990531
  53.5251517  56.7972042 114.5689839  52.4637262  57.2657406 115.5414685
  56.1592875  42.6643820 110.3284172  55.8157145  43.5545462 110.2523283
  56.5271838  42.4745478 109.4653757  44.2278726  54.9877350 103.1472775
  45.0653948  55.3974359 102.9306482  44.4056994  54.0476793 103.1172968
  56.1243158  52.6552431  98.8356607  55.6089782  53.4257036  99.0744995
  55.8520467  51.9817567  99.4589669  53.7090269  47.5002132 103.8941846
  52.8531865  47.1108982 103.7147485  54.1217221  47.5794093 103.0341631
  55.2389416  45.0348475 108.2933406  54.7354211  44.9978610 107.4801211
  55.5320023  45.9441218 108.3530062  51.4832302  45.1187205 107.2999587
  52.3485298  44.9230014 106.9405477  51.5509811  44.8897557 108.2268944
  61.0977432  55.4084786 100.7709781  60.3206875  55.0695945 100.3264943
  61.7768913  55.4137409 100.0964746  55.9129461  50.5279523 100.6616389
  55.6079597  50.8425672 101.5126532  56.8659903  50.6060943 100.7043722
  54.3575893  56.6869747 102.3109343  53.8297255  55.9522506 101.9982580
  53.8563396  57.4644423 102.0649311  59.3368739  54.8818767 107.4276389
  58.6792414  55.5718028 107.5156518  60.1409138  55.2715199 107.7710375
  49.0894621  47.3489413 104.6715954  49.6638373  47.1264594 103.9389147
  49.6765603  47.4178107 105.4244555  58.1474198  53.2363140 105.4780331
  58.6606080  53.8693132 105.9802040  58.7975422  52.6364335 105.1123691
  49.4164208  49.3793874  98.6911839  48.5801520  49.7168560  99.0121114
  49.2768978  49.2442854  97.7538976  51.3917288  44.2230662 103.3991024
  50.7381701  43.9079679 102.7747638  51.3497763  43.6006402 104.1250847
  52.5028493  54.5049957  95.3144316  51.5955555  54.2739210  95.5135465
  52.9999525  53.7087576  95.5018297  55.4096572  63.2147464  98.2341002
  54.7358271  63.5179161  98.8425960  55.7962394  64.0176544  97.8846459
  54.6255029  50.7112595 107.7238671  53.7077590  50.9327542 107.5660359
  55.0415172  50.7858906 106.8650379  55.4090077  52.1104011 102.8541351
  56.1561896  52.6225408 102.5448474  55.6781666  51.7888064 103.7145745
  53.6816727  54.6062552  99.8368306  52.7727946  54.3221585  99.9340776
  53.7111811  55.0261630  98.9771613  58.9135994  58.2169141 103.6059473
  58.4598321  57.3760051 103.6624664  58.2829961  58.8530540 103.9434253
  57.8568914  49.1461127 104.8360141  57.1191671  48.6338513 105.1670383
  58.1095687  48.7061509 104.0243418  57.3568933  60.0545638 104.5409291
  57.6491908  60.6150695 103.8221657  57.8667554  60.3474199 105.2962451
  57.9580541  41.9237379 105.4301910  58.2639418  41.0634743 105.1427825
  58.6833146  42.5154999 105.2300904  44.2504897  52.3268066 103.8183508
  44.0529297  51.7337427 103.0934575  43.6951561  52.0220276 104.5359447
  52.2301621  52.2191172 105.9378101  52.2850231  51.2665009 105.8620578
  51.4192823  52.3750611 106.4219400  53.3792815  56.1471295  97.1756384
  52.9412244  55.4307154  96.7162022  54.1203255  56.3747410  96.6141476
  50.1693981  50.8368232 103.6968480  49.3561846  51.1362403 104.1033672
  50.6652975  50.4423921 104.4142962  52.3202559  60.8325989 105.6302745
  52.2778737  61.0586835 104.7011277  53.2365257  60.5989364 105.7788546
  55.7668192  51.3010057 112.5283374  56.1217580  51.5281530 113.3877840
  56.4140324  51.6328433 111.9060629  61.4965929  54.4228492 103.2332703
  61.3583828  54.6130088 102.3053892  61.1402148  55.1847875 103.6900754
  49.6608055  48.4086588 109.3129715  50.3007435  48.2675347 108.6152678
  48.8285586  48.1221101 108.9368317  61.5235309  56.4905019 108.2443974
  61.9571816  56.3980309 109.0927028  62.2366890  56.4662520 107.6063990
  50.4368359  57.7089018 105.4264707  51.2308958  57.2139338 105.2247282
  49.7260052  57.1806881 105.0632413  55.2563204  60.0907114 109.7777075
  55.3100226  60.6598050 110.5454791  54.3877985  60.2608999 109.4131112
  46.7451123  51.8532100 101.5024460  45.8148711  51.7916555 101.7194422
  46.8408595  51.3308052 100.7061101  46.6636672  48.3786913 104.0902702
  46.9243489  49.2932246 103.9811862  47.4853844  47.9111355 104.2399315
  48.1361597  49.7924670 111.2601526  48.8084651  49.5842032 110.6114175
  47.3091384  49.5946756 110.8206759  62.3850859  56.5328720 110.7776860
  62.5786749  57.4374531 111.0236135  62.2851477  56.0736139 111.6115445
  54.0387169  46.4186611 113.2767187  53.3915084  47.1176560 113.1831664
  54.8088185  46.8522755 113.6443435  54.2151304  54.2567376 111.3364007
  55.1443364  54.4078535 111.1632974  53.7942334  54.3451396 110.4812653
  53.0139635  58.2818040 109.1062545  52.8750721  57.9136824 109.9788483
  52.2254232  58.7965679 108.9346502  53.6087787  63.3827136 100.4488081
  53.7839543  62.9115180 101.2633704  52.9220575  64.0092903 100.6769342
  54.5644851  57.6599643 106.4951382  54.2294683  57.6200413 107.3909032
  54.0648796  56.9944359 106.0221793  48.5389094  53.0667273 112.0203963
  48.4008892  52.3347512 112.6215502  49.4494018  52.9776173 111.7388151
  57.5004042  55.0055677  96.7688442  56.8833213  54.2802505  96.6721495
  57.0320531  55.7665037  96.4255516  51.1671395  52.7787232 111.5087643
  51.8771014  52.1380424 111.4674262  51.1240703  53.0300127 112.4313824
  49.8800329  49.7652450 113.3283283  49.3437686  49.3143188 113.9804879
  49.2917038  49.8998359 112.5853747  48.1748873  66.5316499 107.2227941
  48.4145471  67.1635023 107.9006960  47.3318069  66.1804539 107.5093300
  49.2902588  49.2241101  95.8909746  48.4132054  49.1029902  95.5271993
  49.7660341  48.4327180  95.6388635  59.1575581  57.6794169 112.6608202
  58.2702360  57.3420091 112.7834601  59.7274132  56.9477201 112.8976967
  40.8104728  54.0118261 105.9851253  41.4975768  53.6979991 105.3972269
  40.6552857  54.9159626 105.7118505  45.6139450  48.9008458 110.4136277
  45.5297639  48.2934127 109.6786687  44.7922157  49.3917476 110.4145773
  52.6876735  62.3395622 109.6269445  52.6146906  63.1450593 110.1388750
  52.2454128  62.5387587 108.8017467  52.4766514  61.5767392 103.1372267
  51.6934036  62.1189072 103.2310491  53.1759259  62.0941371 103.5366508
  55.7863164  47.3862021 105.7806472  56.2831864  46.6331983 105.4607542
  55.0150146  47.4226338 105.2149681  63.6392922  53.0902387 107.4224764
  63.6282798  53.9727102 107.0518697  62.7710301  52.7373937 107.2279301
  55.1475418  62.2382456 111.7827604  55.8603390  62.8729920 111.7103505
  54.6565447  62.3346322 110.9667606  56.8692945  56.1433708 103.3544896
  55.9349224  56.2635171 103.1849600  57.0469613  55.2406175 103.0904905
  52.3698133  49.5279404 105.5078157  51.9995921  48.9750445 106.1959062
  52.8657225  48.9237538 104.9553157  60.2565496  51.9851028 103.8894930
  60.7225948  52.8179019 103.8155232  60.7072997  51.5196009 104.5940188
  50.1987332  59.9876899 112.6033175  50.8996791  60.6213382 112.7562569
  49.7282447  60.3291631 111.8428814  58.3241727  58.3294849 100.8881082
  58.6001571  58.2151444 101.7974956  57.4546226  57.9312334 100.8493255
  58.2282159  44.3531615 107.9285831  57.3145239  44.5835841 108.0968038
  58.6575260  44.4370059 108.7799863  57.9988618  52.5421507 110.4285725
  57.3460068  52.7897414 109.7738178  58.3768997  51.7285645 110.0948202
  54.9595791  62.5781200 104.5313895  55.1418186  61.7602856 104.9941648
  55.7828777  62.7948892 104.0938785  55.2937957  61.5049385 101.7928944
  55.8225723  60.9941839 101.1799106  55.5566176  61.1891915 102.6574477
  54.0476191  53.2841318 116.9151762  53.3716828  53.1835447 117.5854137
  54.8703824  53.1280531 117.3787759  45.7955050  59.5213254 109.5364277
  46.3808486  58.7756942 109.6692182  45.5979888  59.8317211 110.4200941
  48.6493705  62.5564502 104.5526720  47.9804080  63.0410629 104.0690760
  48.5106575  62.8033722 105.4670098  40.3872704  52.0918854 108.2568720
  40.4256804  51.5582445 109.0505839  39.8812997  51.5654060 107.6379698
  52.7898973  64.5908245 111.1509378  53.3417281  64.7539867 111.9158463
  53.1305167  65.1812683 110.4789403  47.7663467  46.9383395 111.7531263
  47.8304793  47.7998226 111.3408660  47.7030587  46.3257397 111.0203621
  44.0181282  50.8182957 101.3322652  44.3134723  49.9093635 101.2789706
  43.1169318  50.7970696 101.0103654  55.9267361  62.5390221 108.1373060
  55.8018500  61.7379960 107.6284006  56.5846452  63.0336414 107.6487030
  47.5475529  48.8938953 107.3150200  46.8262115  49.5074921 107.1757674
  48.3368785  49.4296718 107.2366846  57.9902269  60.3399241 109.7652610
  57.0432605  60.2204592 109.6930937  58.3385042  59.4521739 109.8478872
  45.7469124  48.4997054 101.4561977  45.4181830  47.6194433 101.2737083
  46.1008494  48.4444723 102.3438366  54.9948702  60.1351957 105.9656963
  54.8473665  59.2068664 106.1464533  55.8202196  60.1572048 105.4814038
  48.8610947  48.7870024 101.8237455  49.2007019  49.3155945 101.1016063
  49.3083067  49.1250430 102.5996021  58.5982824  60.9580516 107.0521835
  59.5229372  60.7523377 106.9146286  58.4298128  60.7096917 107.9611177
  51.5554387  47.1707075 111.2740523  51.2151208  46.3714888 111.6761203
  50.8493394  47.4708786 110.7017356  52.2070859  44.2556387 109.7267846
  53.0296929  43.7816865 109.6046736  52.4508923  45.0346871 110.2266532
  50.8479094  47.2844646 100.0230747  51.5687456  47.6625898  99.5194464
  50.2244398  48.0033522 100.1265725  54.9910217  47.9889795 100.9589080
  55.2073831  48.8714432 100.6577908  54.5104284  47.5976008 100.2294722
  49.7309438  50.9475508 107.5359824  49.5854019  51.2615811 108.4284106
  49.2534642  51.5660408 106.9830723  51.5905821  47.9378056 107.5840714
  51.5767390  47.0419149 107.2473012  52.3078249  47.9448720 108.2179000
  53.4431952  48.3715396 109.6293841  53.1849729  49.2932467 109.6278172
  52.9116992  47.9745831 110.3194306  58.3878140  61.4766183 102.4083927
  58.5615018  60.9112606 101.6557779  58.8807032  62.2767078 102.2263417
  44.2055100  53.4880852 110.4747486  43.6608568  54.2640660 110.6067760
  45.0834450  53.8351657 110.3166607  50.9942717  46.8192436 102.8528284
  51.1158628  45.8909082 103.0519172  50.7044759  46.8331122 101.9406600
  53.8633907  44.5047346 105.9895004  53.8855604  44.5686680 105.0346983
  54.2801966  43.6651855 106.1835510  64.2417532  54.2402606 104.0274227
  64.6848678  53.4909931 103.6293350  63.3644042  54.2312742 103.6447958
  59.3753313  60.7932948  99.5080825  60.0704218  61.4139640  99.7268140
  59.7176463  59.9428299  99.7833203  44.9921122  52.6150748 113.3677642
  44.2502858  52.7633384 113.9542273  44.6713866  52.8759014 112.5044392
  61.2744736  58.2432653 101.0368156  61.7996060  58.5819926 100.3117476
  61.1867089  57.3079668 100.8531290  52.9364785  62.1566727 113.1658032
  53.2451911  61.9115873 114.0380732  53.7340267  62.3613365 112.6776903
  52.9585397  64.3104636 105.3963409  52.5190387  63.8181015 106.0896266
  53.7093514  63.7677604 105.1555484  45.4377736  60.5016177 105.3988037
  46.2635756  60.2019949 105.0186681  45.0871788  59.7323800 105.8477826
  50.4059269  59.8542645 107.4685711  49.7839278  59.1913350 107.1687939
  51.0764136  59.8803777 106.7859358  43.6386341  58.4202504 106.3576971
  42.8018249  57.9924678 106.1760972  43.6109986  58.6134947 107.2947762
  61.0836517  55.7258023 113.6552082  61.1334522  55.5608030 114.5967605
  60.9750441  54.8585282 113.2649963  49.9672776  58.4046569 100.9444171
  50.1160896  59.0882033 100.2910844  50.7739219  58.3851659 101.4593627
  58.3740280  51.7088951 114.9711389  59.2750142  51.5695416 114.6795387
  58.4488254  51.8743406 115.9109566  52.7083085  49.0855806 113.8164575
  51.8386394  49.3789372 113.5447164  52.9442565  49.6696251 114.5371839
  63.7850396  55.7107844 106.4196674  64.6197288  56.1497648 106.5834234
  63.9209525  55.2346498 105.6004920  60.8341902  53.2687579 112.3674162
  61.3096024  53.4615226 111.5593013  59.9107468  53.3246765 112.1217546
  47.7225409  54.4311746 101.9505240  47.4771451  53.5274076 102.1485450
  47.8921323  54.4328897 101.0084718  55.4122119  45.3035423 111.3329996
  55.9304063  46.0396450 111.0076484  55.0577251  45.6099416 112.1676755
  46.9921056  50.1640104  99.4491402  46.2990301  50.2384459  98.7931438
  46.7472808  49.4000448  99.9712919  55.6634713  41.7235705 106.8530892
  55.9436467  41.0558894 107.4791319  56.4485320  41.9164801 106.3405556
  53.4668181  60.8994699  98.4155919  52.8942148  61.5184886  97.9626391
  54.0400975  61.4494061  98.9495841  59.5343571  50.1453339 110.6002467
  60.4860994  50.2451437 110.6214691  59.3647022  49.3531608 111.1100552
  57.5557951  47.2308923 110.7861868  56.9607883  47.5113935 110.0908357
  57.2707647  47.7202823 111.5578609  56.6865441  61.1831849  99.5464501
  57.6196114  61.1177411  99.7497376  56.5988654  62.0188116  99.0879034
  59.3153458  60.4997720  96.5068448  59.2367089  60.1657583  97.4004206
  60.1363125  60.9919488  96.5059921  62.0131649  53.3659459 109.7144767
  61.9807969  52.4275460 109.9004451  62.6232273  53.4443496 108.9810592
  53.8514980  52.2355512  95.7571971  54.7974085  52.1061720  95.8260389
  53.4729225  51.4970174  96.2341399  62.1626137  50.1570502 109.7603050
  61.6465186  49.3728959 109.5732979  63.0466086  49.8289219 109.9249570
  59.8236864  43.9011518 105.7198863  59.6261686  43.5926606 106.6042195
  60.4336570  44.6273157 105.8496793  67.8308199  54.4275466 108.8550804
  68.5611587  54.1660754 109.4158507  67.2215144  53.6904188 108.8952872
  65.9123496  52.5683328 109.4525255  65.1856660  52.4339293 108.8441747
  65.4970783  52.8760157 110.2581973  52.0357897  50.1605488  95.6926856
  51.1289352  49.8638601  95.7689570  52.3133878  49.8635306  94.8261143
  42.9535837  51.4811852 106.1425903  42.6338622  50.6277160 105.8500277
  42.4069266  51.6960430 106.8983870  46.7315745  54.1974293 109.8595409
  46.9501755  55.1291401 109.8783443  47.1441519  53.8382267 110.6450213
  53.6519963  44.7042378 101.8471098  52.8420691  44.3589463 102.2226344
  54.3404380  44.3949922 102.4358709  55.5810511  43.7820425 103.4695394
  56.1341550  44.2015878 104.1285417  55.8180597  42.8556173 103.5118350
  50.8056682  47.0192424  95.8338836  51.6675846  47.3447322  96.0934653
  50.9907026  46.2323919  95.3211901  42.8224097  55.1014763 108.1119024
  42.1287569  54.6868716 107.5988979  43.5697088  55.1435300 107.5152443
  58.9589318  45.8920950 102.9774059  58.3787987  46.5505754 102.5952111
  58.6925251  45.0698295 102.5661476  57.4092884  45.2926008 105.1795379
  57.9092663  45.4042542 104.3709698  58.0528492  44.9887061 105.8196187
  44.7360840  55.0333017 105.9885039  44.7131528  55.1320704 105.0366922
  45.0461476  55.8798168 106.3102205  47.3948218  57.0909172 110.1031654
  48.3491471  57.0593114 110.0361585  47.1960741  56.6299796 110.9181880
  47.9847600  55.6610288 112.6702451  48.8040489  56.1554367 112.6937289
  48.2584408  54.7442256 112.6420019  57.7414196  48.0521040 102.0330407
  56.8540051  48.3370691 101.8150602  58.1568185  47.8914804 101.1857684
  61.0928732  48.0767561 105.7484746  61.8689122  48.5664014 106.0209363
  60.3676866  48.5025616 106.2056616  63.5301291  48.7895181 106.8058687
  64.1245782  48.5490917 106.0951995  63.6027875  48.0702311 107.4332223
  45.7498447  62.6328792 107.1201852  45.6152915  61.8729192 106.5539850
  45.3330509  63.3569691 106.6530640  56.8857410  57.8165715  96.1278427
  57.5893260  58.0215718  96.7436082  56.1620058  58.3842477  96.3927510
  57.7155220  53.5675576 102.2480697  57.6590421  54.0244128 101.4088329
  58.2683562  52.8066261 102.0703540  61.5260026  49.3565308 103.0730816
  61.2696960  48.9561944 103.9039024  60.9012894  50.0709102 102.9480956
  65.8372364  52.0961381 105.5802108  65.2771922  52.1654571 106.3533670
  65.2315867  51.9202366 104.8601604  48.9067572  63.5298109 107.3320294
  48.7899957  64.4743541 107.2298984  48.0860019  63.2271670 107.7206093
  58.7944107  58.2548244  98.1776887  59.6289711  57.8229443  97.9954362
  58.6328450  58.0830258  99.1053781  58.4489999  54.7580358  99.5433226
  58.3938803  54.5924629  98.6021670  57.8236054  55.4656390  99.6995416
  51.7586125  44.2588467  99.1218545  51.7464794  45.2030307  99.2786815
  52.6509547  44.0758612  98.8278006  49.9322087  64.1826370 110.5476223
  50.8349333  64.2149981 110.8642718  49.7059457  63.2526821 110.5622558
  51.6875689  62.9357357 107.2086301  50.7371320  62.9359219 107.0950673
  51.9908175  62.1890092 106.6922336  55.5738244  40.8531243 103.3764481
  54.8070640  40.2989730 103.5221164  55.9848949  40.9253112 104.2378633
  60.0904904  70.5780800 104.1990479  59.5269769  70.4870737 103.4306767
  59.9757299  69.7580704 104.6792972  65.6704463  74.2451768  99.5104944
  65.0192443  74.8305848  99.1238958  66.4648826  74.7757963  99.5699982
  59.5960090  71.3340905  99.9092079  60.3690966  70.7869892  99.7704954
  59.9485489  72.1985154 100.1206540  61.9326368  67.4933571  97.5410528
  62.1851888  66.9715092  96.7793991  60.9950927  67.3299716  97.6437212
  67.1479728  71.9342200 100.0473928  66.5125561  72.0076826 100.7594833
  66.8177134  72.5235798  99.3693008  61.6522657  69.3961677  99.7434903
  61.5358915  68.7206580 100.4115988  61.7624916  68.9094051  98.9267056
  63.9954197  68.8571824 103.4481593  63.6312405  68.3302445 104.1594514
  64.8521313  68.4670293 103.2748078  63.6359684  63.8861724  98.4442941
  63.8034087  64.7541960  98.8113412  63.4456853  64.0489005  97.5204230
  59.8447499  68.7992499 106.1445476  58.9197996  68.6668713 106.3523168
  60.0931912  69.5786719 106.6415418  63.6148905  66.3419381  99.4289608
  63.4948531  66.7876432 100.2675088  62.9201494  66.6904699  98.8703146
  57.2056310  68.4425773 106.9789265  57.3348691  68.6960252 107.8928677
  56.5253761  69.0353481 106.6593920  69.3133971  66.8140854 100.2569942
  70.2251828  67.0468241 100.0817640  68.8043619  67.3977899  99.6945021
  62.4100402  67.6564233 101.7223174  63.1124445  68.1085277 102.1897100
  62.0781030  67.0148052 102.3503067  56.1525736  65.9147786 107.0240307
  55.3624790  66.1705314 106.5480418  56.6436983  66.7296124 107.1292348
  58.1040481  66.2792365 103.9823784  57.3071644  66.3911059 104.5007280
  57.8766073  66.6179017 103.1164674  54.4363439  66.1678276 109.4555298
  54.6871477  67.0525286 109.7212874  54.9722987  65.9882878 108.6830390
  63.6494166  74.4705176 101.7985279  63.5139841  75.3156712 102.2270127
  64.1903979  74.6724453 101.0351213  57.1023564  71.9880614 102.3713204
  57.6148084  72.7823864 102.5218769  57.7546277  71.2906904 102.3046805
  66.9986630  57.9935738 110.3284172  66.6550899  58.8837379 110.2523283
  67.3665592  57.8037395 109.4653757  55.0672480  70.3169268 103.1472775
  55.9047702  70.7266277 102.9306482  55.2450748  69.3768710 103.1172968
  66.9636913  67.9844349  98.8356607  66.4483536  68.7548953  99.0744995
  66.6914221  67.3109485  99.4589669  64.5484024  62.8294050 103.8941846
  63.6925620  62.4400900 103.7147485  64.9610975  62.9086010 103.0341631
  66.0783170  60.3640393 108.2933406  65.5747966  60.3270528 107.4801211
  66.3713777  61.2733136 108.3530062  62.3226056  60.4479123 107.2999587
  63.1879053  60.2521931 106.9405477  62.3903565  60.2189474 108.2268944
  71.9371187  70.7376703 100.7709781  71.1600630  70.3987863 100.3264943
  72.6162668  70.7429327 100.0964746  66.7523216  65.8571441 100.6616389
  66.4473351  66.1717590 101.5126532  67.7053658  65.9352861 100.7043722
  65.1969648  72.0161664 102.3109343  64.6691009  71.2814424 101.9982580
  64.6957150  72.7936341 102.0649311  59.9288375  62.6781331 104.6715954
  60.5032127  62.4556512 103.9389147  60.5159358  62.7470025 105.4244555
  60.2557962  64.7085792  98.6911839  59.4195275  65.0460478  99.0121114
  60.1162732  64.5734771  97.7538976  62.2311043  59.5522579 103.3991024
  61.5775455  59.2371597 102.7747638  62.1891517  58.9298320 104.1250847
  63.3422248  69.8341875  95.3144316  62.4349310  69.6031128  95.5135465
  63.8393280  69.0379494  95.5018297  66.2490327  78.5439382  98.2341002
  65.5752025  78.8471078  98.8425960  66.6356149  79.3468462  97.8846459
  66.2483831  67.4395929 102.8541351  66.9955650  67.9517326 102.5448474
  66.5175421  67.1179981 103.7145745  64.5210481  69.9354469  99.8368306
  63.6121701  69.6513502  99.9340776  64.5505565  70.3553548  98.9771613
  68.6962668  64.4753045 104.8360141  67.9585425  63.9630431 105.1670383
  68.9489442  64.0353427 104.0243418  68.7974296  57.2529297 105.4301910
  69.1033172  56.3926660 105.1427825  69.5226900  57.8446917 105.2300904
  55.0898652  67.6559983 103.8183508  54.8923051  67.0629344 103.0934575
  54.5345316  67.3512194 104.5359447  63.0695375  67.5483090 105.9378101
  63.1243985  66.5956926 105.8620578  62.2586577  67.7042529 106.4219400
  64.2186569  71.4763213  97.1756384  63.7805999  70.7599072  96.7162022
  64.9597010  71.7039328  96.6141476  61.0087735  66.1660150 103.6968480
  60.1955601  66.4654320 104.1033672  61.5046729  65.7715838 104.4142962
  60.5001810  63.7378505 109.3129715  61.1401189  63.5967264 108.6152678
  59.6679341  63.4513019 108.9368317  57.5844877  67.1824017 101.5024460
  56.6542465  67.1208473 101.7194422  57.6802349  66.6599970 100.7061101
  57.5030426  63.7078830 104.0902702  57.7637244  64.6224163 103.9811862
  58.3247599  63.2403273 104.2399315  68.3397797  70.3347595  96.7688442
  67.7226967  69.6094423  96.6721495  67.8714285  71.0956955  96.4255516
  60.1296343  64.5533019  95.8909746  59.2525809  64.4321820  95.5271993
  60.6054096  63.7619097  95.6388635  51.6498483  69.3410179 105.9851253
  52.3369523  69.0271909 105.3972269  51.4946611  70.2451543 105.7118505
  56.4533205  64.2300375 110.4136277  56.3691394  63.6226045 109.6786687
  55.6315911  64.7209394 110.4145773  66.6256919  62.7153939 105.7806472
  67.1225618  61.9623901 105.4607542  65.8543900  62.7518255 105.2149681
  63.2091887  64.8571322 105.5078157  62.8389675  64.3042362 106.1959062
  63.7050980  64.2529455 104.9553157  69.0675914  59.6823532 107.9285831
  68.1538993  59.9127759 108.0968038  69.4969015  59.7661976 108.7799863
  51.2266459  67.4210772 108.2568720  51.2650558  66.8874363 109.0505839
  50.7206752  66.8945978 107.6379698  58.6057221  62.2675313 111.7531263
  58.6698548  63.1290143 111.3408660  58.5424341  61.6549314 111.0203621
  54.8575036  66.1474874 101.3322652  55.1528478  65.2385553 101.2789706
  53.9563072  66.1262614 101.0103654  58.3869283  64.2230871 107.3150200
  57.6655869  64.8366839 107.1757674  59.1762539  64.7588636 107.2366846
  56.5862878  63.8288972 101.4561977  56.2575584  62.9486351 101.2737083
  56.9402249  63.7736641 102.3438366  59.7004701  64.1161942 101.8237455
  60.0400774  64.6447863 101.1016063  60.1476822  64.4542348 102.5996021
  63.0464614  59.5848305 109.7267846  63.8690683  59.1108783 109.6046736
  63.2902677  60.3638789 110.2266532  61.6872848  62.6136563 100.0230747
  62.4081211  62.9917816  99.5194464  61.0638152  63.3325440 100.1265725
  65.8303971  63.3181712 100.9589080  66.0467586  64.2006350 100.6577908
  65.3498038  62.9267926 100.2294722  60.5703193  66.2767425 107.5359824
  60.4247773  66.5907729 108.4284106  60.0928396  66.8952326 106.9830723
  62.4299575  63.2669973 107.5840714  62.4161144  62.3711067 107.2473012
  63.1472004  63.2740637 108.2179000  61.8336471  62.1484354 102.8528284
  61.9552383  61.2201000 103.0519172  61.5438514  62.1623040 101.9406600
  64.7027662  59.8339264 105.9895004  64.7249359  59.8978597 105.0346983
  65.1195721  58.9943773 106.1835510  60.8066530  73.7338486 100.9444171
  60.9554651  74.4173951 100.2910844  61.6132974  73.7143576 101.4593627
  58.5619163  69.7603664 101.9505240  58.3165205  68.8565994 102.1485450
  58.7315078  69.7620815 101.0084718  57.8314811  65.4932022  99.4491402
  57.1384056  65.5676377  98.7931438  57.5866563  64.7292365  99.9712919
  66.5028467  57.0527623 106.8530892  66.7830221  56.3850812 107.4791319
  67.2879074  57.2456719 106.3405556  64.3061936  76.2286617  98.4155919
  63.7335903  76.8476804  97.9626391  64.8794730  76.7785979  98.9495841
  70.1547212  75.8289637  96.5068448  70.0760844  75.4949501  97.4004206
  70.9756879  76.3211405  96.5059921  64.6908734  67.5647430  95.7571971
  65.6367839  67.4353638  95.8260389  64.3122979  66.8262092  96.2341399
  70.6630619  59.2303436 105.7198863  70.4655440  58.9218524 106.6042195
  71.2730324  59.9565075 105.8496793  62.8751652  65.4897406  95.6926856
  61.9683107  65.1930519  95.7689570  63.1527633  65.1927224  94.8261143
  53.7929592  66.8103769 106.1425903  53.4732376  65.9569078 105.8500277
  53.2463020  67.0252348 106.8983870  64.4913717  60.0334296 101.8471098
  63.6814446  59.6881381 102.2226344  65.1798134  59.7241839 102.4358709
  66.4204266  59.1112343 103.4695394  66.9735304  59.5307796 104.1285417
  66.6574352  58.1848091 103.5118350  61.6450436  62.3484341  95.8338836
  62.5069600  62.6739240  96.0934653  61.8300780  61.5615837  95.3211901
  53.6617852  70.4306681 108.1119024  52.9681323  70.0160634 107.5988979
  54.4090843  70.4727217 107.5152443  69.7983073  61.2212868 102.9774059
  69.2181742  61.8797672 102.5952111  69.5319005  60.3990212 102.5661476
  68.2486639  60.6217925 105.1795379  68.7486417  60.7334460 104.3709698
  68.8922247  60.3178978 105.8196187  55.5754594  70.3624935 105.9885039
  55.5525283  70.4612622 105.0366922  55.8855231  71.2090085 106.3102205
  68.5807951  63.3812958 102.0330407  67.6933806  63.6662609 101.8150602
  68.9961940  63.2206721 101.1857684  67.7251164  73.1457633  96.1278427
  68.4287014  73.3507635  96.7436082  67.0013813  73.7134395  96.3927510
  68.5548974  68.8967494 102.2480697  68.4984176  69.3536045 101.4088329
  69.1077317  68.1358179 102.0703540  72.3653780  64.6857226 103.0730816
  72.1090715  64.2853862 103.9039024  71.7406648  65.4001020 102.9480956
  69.6337862  73.5840162  98.1776887  70.4683465  73.1521360  97.9954362
  69.4722204  73.4122176  99.1053781  69.2883754  70.0872275  99.5433226
  69.2332557  69.9216547  98.6021670  68.6629809  70.7948308  99.6995416
  62.5979879  59.5880384  99.1218545  62.5858549  60.5322224  99.2786815
  63.4903301  59.4050530  98.8278006  66.4131999  56.1823161 103.3764481
  65.6464394  55.6281648 103.5221164  66.8242704  56.2545030 104.2378633
  70.9690097  79.8824937  95.8909746  70.0919563  79.7613737  95.5271993
  71.4447850  79.0911015  95.6388635  72.4844191  77.6776259  95.8338836
  73.3463355  78.0031157  96.0934653  72.6694535  76.8907755  95.3211901
  37.6365950   6.8476007  83.2313755  37.5579582   6.5135871  84.1249513
  38.4575617   7.3397775  83.2305227  43.9916955  20.5930055  86.2350251
  43.3404935  21.1784135  85.8484265  44.7861318  21.1236250  86.2945288
  37.9172582  17.6819192  86.6337385  38.6903458  17.1348179  86.4950261
  38.2697981  18.5463441  86.8451847  40.2538860  13.8411858  84.2655835
  40.5064381  13.3193379  83.5039298  39.3163419  13.6778004  84.3682519
  45.4692220  18.2820487  86.7719235  44.8338053  18.3555113  87.4840140
  45.1389627  18.8714086  86.0938314  50.6990570  12.7822870  92.9763557
  51.4315742  12.2122086  93.2101386  49.9429926  12.3944470  93.4170062
  39.9735149  15.7439964  86.4680210  39.8571407  15.0684867  87.1361294
  40.0837409  15.2572338  85.6512363  42.3166690  15.2050111  90.1726899
  41.9524897  14.6780732  90.8839821  43.1733806  14.8148580  89.9993385
  41.9572177  10.2340011  85.1688248  42.1246579  11.1020247  85.5358719
  41.7669346  10.3967293  84.2449537  41.9361398  12.6897668  86.1534915
  41.8161023  13.1354719  86.9920395  41.2413986  13.0382986  85.5948453
  39.6968290  25.4601310  89.8025046  39.6192319  26.4109135  89.8813526
  39.0929933  25.1147183  90.4599972  47.6346464  13.1619142  86.9815249
  48.5464320  13.3946528  86.8062946  47.1256111  13.7456186  86.4190327
  46.2416046  18.1444960  94.3728830  45.6124908  18.3090674  93.6704898
  45.8541708  18.5586570  95.1439794  50.1205278  19.0799398  91.7273194
  49.4356316  19.4598299  91.1770227  50.2049127  19.6894725  92.4605142
  41.7944008  17.8819368  91.6378915  42.2582353  18.1607071  90.8483538
  41.5300806  16.9802813  91.4552006  40.7312894  14.0042520  88.4468480
  41.4336937  14.4563564  88.9142407  40.3993522  13.3626339  89.0748373
  56.5808031  15.9470061  92.8475866  55.8271739  15.3777459  92.6919871
  56.7155572  15.9132725  93.7946501  41.9706659  20.8183463  88.5230586
  41.8352333  21.6634999  88.9515433  42.5116471  21.0202741  87.7596519
  35.4236056  18.3358901  89.0958511  35.9360577  19.1302151  89.2464075
  36.0758769  17.6385192  89.0292112  37.2330941  21.4524657  91.1781264
  37.4097569  22.3742622  90.9902248  38.0287774  21.1383077  91.6075644
  45.2849405  14.3322636  85.5601914  44.7696028  15.1027241  85.7990302
  45.0126713  13.6587772  86.1834976  50.2583679  17.0854991  87.4955088
  49.4813122  16.7466150  87.0510250  50.9375160  17.0907614  86.8210053
  45.0735708  12.2049728  87.3861695  44.7685844  12.5195877  88.2371839
  46.0266150  12.2831148  87.4289028  43.5182140  18.3639951  89.0354649
  42.9903501  17.6292711  88.7227887  43.0169643  19.1414628  88.7894618
  48.4974986  16.5588972  94.1521696  47.8398660  17.2488233  94.2401824
  49.3015385  16.9485404  94.4955682  47.3080445  14.9133345  92.2025637
  47.8212326  15.5463336  92.7047347  47.9581669  14.3134540  91.8368997
  38.5770455  11.0564079  85.4157146  37.7407767  11.3938765  85.7366421
  38.4375224  10.9213059  84.4784283  41.6634740  16.1820162  82.0389622
  40.7561802  15.9509415  82.2380771  42.1605772  15.3857781  82.2263604
  44.5702819  24.8917669  84.9586308  43.8964518  25.1949366  85.5671266
  44.9568641  25.6946749  84.6091766  44.5696323  13.7874216  89.5786658
  45.3168142  14.2995613  89.2693780  44.8387913  13.4658269  90.4391052
  42.8422974  16.2832757  86.5613612  41.9334193  15.9991789  86.6586082
  42.8718057  16.7031835  85.7016919  48.0742241  19.8939346  90.3304780
  47.6204568  19.0530256  90.3869970  47.4436208  20.5300744  90.6679560
  46.5175180  21.7315843  91.2654598  46.8098155  22.2920900  90.5466964
  47.0273801  22.0244404  92.0207757  42.5399061  17.8241500  83.9001691
  42.1018491  17.1077359  83.4407328  43.2809502  18.0517615  83.3386782
  41.4808805  22.5096194  92.3548051  41.4384984  22.7357040  91.4256583
  42.3971504  22.2759568  92.5033852  50.6572176  16.0998697  89.9578010
  50.5190075  16.2900293  89.0299199  50.3008395  16.8618080  90.4146061
  50.6841556  18.1675224  94.9689281  51.1178062  18.0750513  95.8172335
  51.3973136  18.1432725  94.3309297  39.5974606  19.3859223  92.1510014
  40.3915205  18.8909543  91.9492589  38.8866299  18.8577086  91.7877720
  42.7694034  25.0597341  87.1733388  42.9445790  24.5885385  87.9879010
  42.0826822  25.6863108  87.4014648  43.7251097  19.3369848  93.2196689
  43.3900930  19.2970618  94.1154339  43.2255043  18.6714564  92.7467099
  46.6610289  16.6825882  83.4933749  46.0439460  15.9572710  83.3966801
  46.1926777  17.4435242  83.1500823  37.3355119  28.2086704  93.9473248
  37.5751718  28.8405228  94.6252266  36.4924316  27.8574744  94.2338607
  38.4508835  10.9011306  82.6155053  37.5738301  10.7800107  82.2517300
  38.9266588  10.1097385  82.3633942  41.8482981  24.0165827  96.3514752
  41.7753153  24.8220798  96.8634056  41.4060374  24.2157792  95.5262773
  41.6372761  23.2537597  89.8617573  40.8540283  23.7959277  89.9555798
  42.3365506  23.7711576  90.2611815  52.7999168  14.7672592  94.1470070
  52.7889045  15.6497307  93.7764003  51.9316548  14.4144142  93.9524607
  46.0299192  17.8203913  90.0790202  45.0955470  17.9405376  89.9094906
  46.2075860  16.9176380  89.8150212  49.4171743  13.6621233  90.6140236
  49.8832195  14.4949224  90.5400539  49.8679244  13.1966214  91.3185495
  47.4847974  20.0065054  87.6126388  47.7607818  19.8921648  88.5220262
  46.6152473  19.6082539  87.5738561  44.1202038  24.2551405  91.2559202
  44.3024433  23.4373061  91.7186954  44.9435024  24.4719097  90.8184092
  44.4544204  23.1819590  88.5174250  44.9831970  22.6712044  87.9044413
  44.7172423  22.8662120  89.3819783  37.8099952  24.2334706  91.2772026
  37.1410327  24.7180834  90.7936066  37.6712821  24.4803927  92.1915405
  41.9505220  26.2678450  97.8754685  42.5023528  26.4310072  98.6403770
  42.2911414  26.8582888  97.2034710  45.0873607  24.2160426  94.8618367
  44.9624747  23.4150165  94.3529312  45.7452699  24.7106619  94.3732337
  47.1508516  22.0169446  96.4897917  46.2038851  21.8974797  96.4176244
  47.4991289  21.1291944  96.5724178  44.1554949  21.8122162  92.6902269
  44.0079912  20.8838869  92.8709839  44.9808443  21.8342253  92.2059344
  47.7589071  22.6350721  93.7767142  48.6835618  22.4293582  93.6391593
  47.5904374  22.3867122  94.6856483  40.0085341   8.9614851  86.7476054
  40.7293703   9.3396103  86.2439771  39.3850645   9.6803727  86.8511032
  44.1516463   9.6659999  87.6834386  44.3680078  10.5484637  87.3823215
  43.6710531   9.2746213  86.9540028  47.5484387  23.1536388  89.1329233
  47.7221265  22.5882811  88.3803086  48.0413278  23.9537283  88.9508723
  53.4023778  15.9172811  90.7519533  53.8454924  15.1680136  90.3538656
  52.5250289  15.9082947  90.3693265  48.5359560  22.4703152  86.2326132
  49.2310464  23.0909845  86.4513446  48.8782710  21.6198504  86.5078510
  50.4350983  19.9202858  87.7613462  50.9602307  20.2590131  87.0362782
  50.3473335  18.9849873  87.5776597  42.1191644  25.9874841  92.1208716
  41.6796634  25.4951220  92.8141572  42.8699761  25.4447809  91.8800791
  39.5665516  21.5312850  94.1931017  38.9445525  20.8683555  93.8933245
  40.2370383  21.5573982  93.5104665  39.1279023  20.0816774  87.6689478
  39.2767143  20.7652238  87.0156151  39.9345466  20.0621864  88.1838934
  52.9456643  17.3878049  93.1441981  53.7803534  17.8267853  93.3079541
  53.0815772  16.9116702  92.3250226  36.8831656  16.1081951  88.6750547
  36.6377698  15.2044281  88.8730757  37.0527570  16.1099102  87.7330025
  36.1527303  11.8410309  86.1736708  35.4596548  11.9154664  85.5176744
  35.9079055  11.0770653  86.6958225  42.6274428  22.5764904  85.1401225
  42.0548395  23.1955091  84.6871697  43.2007222  23.1264266  85.6741147
  45.8471688  22.8602054  86.2709808  46.7802361  22.7947616  86.4742683
  45.7594901  23.6958321  85.8124340  48.4759705  22.1767925  83.2313755
  48.3973336  21.8427788  84.1249513  49.2969371  22.6689692  83.2305227
  43.0121227  13.9125717  82.4817278  43.9580331  13.7831925  82.5505696
  42.6335472  13.1740379  82.9586706  56.9914446  16.1045671  95.5796111
  57.7217834  15.8430959  96.1403814  56.3821391  15.3674393  95.6198178
  41.1964144  11.8375693  82.4172163  40.2895599  11.5408806  82.4934877
  41.4740125  11.5405511  81.5506449  39.9662928   8.6962628  82.5584142
  40.8282092   9.0217527  82.8179960  40.1513273   7.9094124  82.0457208
  48.1195565   7.5691155  89.7019365  47.5394234   8.2275959  89.3197418
  47.8531498   6.7468500  89.2906783  46.9020443   9.7291245  88.7575713
  46.0146298  10.0140896  88.5395908  47.3174432   9.5685009  87.9102990
  34.9104693  24.3098996  93.8447158  34.7759161  23.5499397  93.2785156
  34.4936756  25.0339896  93.3775947  46.0463656  19.4935920  82.8523733
  46.7499507  19.6985922  83.4681389  45.3226305  20.0612682  83.1172817
  46.8761467  15.2445781  88.9726004  46.8196668  15.7014333  88.1333636
  47.4289809  14.4836466  88.7948846  50.6866273  11.0335513  89.7976123
  50.4303207  10.6332149  90.6284331  50.0619141  11.7479307  89.6726262
  54.9978610  13.7731586  92.3047415  54.4378168  13.8424776  93.0778977
  54.3922114  13.5972571  91.5846911  38.0673819  25.2068313  94.0565601
  37.9506203  26.1513746  93.9544291  37.2466266  24.9041875  94.4451400
  47.9550354  19.9318449  84.9022193  48.7895958  19.4999648  84.7199668
  47.7934697  19.7600463  85.8299088  47.6096246  16.4350563  86.2678533
  47.5545050  16.2694834  85.3266977  46.9842301  17.1426595  86.4240723
  40.9192371   5.9358672  85.8463851  40.9071041   6.8800511  86.0032122
  41.8115793   5.7528817  85.5523312  40.8481935  24.6127562  93.9331608
  39.8977566  24.6129424  93.8195980  41.1514422  23.8660296  93.4167642
  56.5834629  30.4488100  94.9977370  57.2213039  30.3294848  94.2940710
  56.4655472  31.3968944  95.0565322  53.3924335  30.4015528  94.9338895
  53.0542847  30.2856593  94.0459430  54.2614103  30.0006693  94.9139901
  49.2511151  32.2551005  90.9235786  48.6876016  32.1640942  90.1552074
  49.1363546  31.4350909  91.4038278  53.8744118  31.5550380 100.8925100
  53.8632759  31.1603178 100.0205604  54.0364758  30.8216453 101.4858872
  46.7975583  33.7502196  93.7620006  47.5896875  33.4093021  93.3466306
  47.0372233  33.8597171  94.6822160  54.8310710  35.9221973  86.2350251
  54.1798689  36.5076053  85.8484265  55.6255072  36.4528167  86.2945288
  48.7566337  33.0111110  86.6337385  49.5297213  32.4640097  86.4950261
  49.1091736  33.8755359  86.8451847  50.5951379  34.3387492  99.8404284
  50.3041245  35.2433123  99.7250951  51.2308364  34.3804020 100.5548354
  51.5207586  31.7164340  96.4305644  52.1171158  31.4920363  95.7162607
  51.5782558  30.9749086  97.0331092  51.0932615  29.1703776  84.2655835
  51.3458135  28.6485297  83.5039298  50.1557174  29.0069921  84.3682519
  56.1375897  28.1739554  92.0730578  56.9238987  27.7558977  91.7220995
  56.4014602  29.0785646  92.2412227  56.3085975  33.6112404  86.7719235
  55.6731808  33.6847031  87.4840140  55.9783381  34.2006003  86.0938314
  61.5384324  28.1114787  92.9763557  62.2709496  27.5414004  93.2101386
  60.7823680  27.7236388  93.4170062  50.8128903  31.0731882  86.4680210
  50.6965161  30.3976785  87.1361294  50.9231163  30.5864256  85.6512363
  53.1560444  30.5342029  90.1726899  52.7918651  30.0072650  90.8839821
  54.0127560  30.1440498  89.9993385  59.0609745  21.8236361  97.4358165
  58.7293070  22.6931772  97.2119380  58.4655358  21.5072645  98.1152196
  52.7965931  25.5631929  85.1688248  52.9640334  26.4312165  85.5358719
  52.6063100  25.7259210  84.2449537  55.5541264  34.0248907  96.8354078
  55.2541987  34.9273946  96.7269885  55.2092324  33.7581091  97.6875231
  49.0053746  30.4762704  92.8690783  48.0804242  30.3438918  93.0768474
  49.2538159  31.2556924  93.3660725  58.9538408  26.5431448  94.5151515
  58.0455286  26.4746856  94.2210276  58.9026004  27.0203393  95.3433341
  52.7755152  28.0189586  86.1534915  52.6554777  28.4646637  86.9920395
  52.0807740  28.3674904  85.5948453  46.3662557  30.1195978  93.7034572
  46.4954938  30.3730457  94.6173983  45.6860008  30.7123686  93.3839227
  50.5362044  40.7893228  89.8025046  50.4586074  41.7401053  89.8813526
  49.9323688  40.4439100  90.4599972  53.0279274  27.9621093 102.4586413
  52.2512608  28.5215013 102.4489277  53.6669837  28.4477876 102.9801283
  60.8200055  24.7447886  96.2929389  60.1774435  25.0380419  95.6469184
  60.3154983  24.6300806  97.0982586  58.4740218  28.4911059  86.9815249
  59.3858074  28.7238446  86.8062946  57.9649865  29.0748103  86.4190327
  51.2825646  30.7706547 102.0204380  52.0240331  31.3091591 101.7439203
  50.5762632  31.3972835 102.1775932  56.7580986  32.9135687 100.6176541
  57.1664342  32.4718098  99.8731174  56.0358247  32.3388315 100.8710734
  53.1112056  27.8508294  97.9910098  53.9573251  28.2747707  98.1344747
  53.0510694  27.1941918  98.6848661  57.0809801  33.4736878  94.3728830
  56.4518663  33.6382592  93.6704898  56.6935463  33.8878487  95.1439794
  60.9599032  34.4091316  91.7273194  60.2750071  34.7890217  91.1770227
  61.0442882  35.0186642  92.4605142  56.2611501  25.5112662  99.6491272
  56.0172433  26.2654723  99.1125547  56.5371432  25.8898010 100.4838519
  58.2149964  32.0551275  98.3268537  58.4266859  32.6983034  97.6502918
  58.1679712  31.2213591  97.8590467  55.8176193  24.6669095  95.2305110
  54.9560672  24.9650349  95.5221847  55.8438628  24.8839494  94.2986142
  52.6337762  33.2111286  91.6378915  53.0976108  33.4898989  90.8483538
  52.3694561  32.3094730  91.4552006  49.5261843  32.7582767  94.5758678
  50.0963201  33.1870036  93.9376163  50.1169955  32.4765352  95.2742864
  51.5706648  29.3334438  88.4468480  52.2730692  29.7855482  88.9142407
  51.2387277  28.6918257  89.0748373  45.3131982  27.5917991  93.7485614
  44.5231036  27.8475519  93.2725725  45.8043230  28.4066329  93.8537654
  59.3295792  34.9323230  96.4990895  60.1513236  34.5303417  96.2173576
  59.3258195  34.8291464  97.4507011  47.2646728  27.9562570  90.7069091
  46.4677891  28.0681264  91.2252586  47.0372320  28.2949222  89.8409981
  53.0952395  34.4807273  98.6551605  53.1596828  34.9427681  99.4909777
  52.3863319  33.8504638  98.7833915  43.5969685  27.8448481  96.1800605
  43.8477724  28.7295491  96.4458181  44.1329234  27.6653083  95.4075697
  67.4201785  31.2761978  92.8475866  66.6665493  30.7069377  92.6919871
  67.5549326  31.2424643  93.7946501  52.8100413  36.1475381  88.5230586
  52.6746088  36.9926916  88.9515433  53.3510226  36.3494658  87.7596519
  46.2629810  33.6650819  89.0958511  46.7754331  34.4594069  89.2464075
  46.9152523  32.9677109  89.0292112  48.0724695  36.7816575  91.1781264
  48.2491324  37.7034540  90.9902248  48.8681529  36.4674994  91.6075644
  47.3577052  28.8281207 101.0543427  47.2430567  27.9266464 101.3550526
  46.5021569  29.0744904 100.7028244  54.4368889  36.7698947 102.6530928
  53.9932744  35.9835326 102.3351832  55.0986103  36.9578098 101.9874818
  49.1956011  38.2994749  97.1791606  49.7463436  38.1711812  96.4068600
  48.3567487  38.5989638  96.8286499  56.5350128  37.0501747 100.6812329
  56.5168603  37.8710628 100.1892598  57.4570048  36.9255822 100.9062470
  52.9923182  34.5645877 101.5235837  53.5251518  33.8034165 101.2935145
  52.4637263  34.2719528 102.2659992  56.1592877  19.6705943  97.0529479
  55.8157146  20.5607584  96.9768590  56.5271839  19.4807600  96.1899064
  44.2278727  31.9939473  89.8718081  45.0653949  32.4036481  89.6551789
  44.4056995  31.0538915  89.8418275  56.1243159  29.6614554  85.5601914
  55.6089783  30.4319158  85.7990302  55.8520468  28.9879690  86.1834976
  53.7090270  24.5064255  90.6187153  52.8531867  24.1171105  90.4392791
  54.1217222  24.5856215  89.7586938  55.2389417  22.0410598  95.0178712
  54.7354213  22.0040733  94.2046518  55.5320024  22.9503341  95.0775369
  51.4832303  22.1249328  94.0244894  52.3485300  21.9292136  93.6650783
  51.5509812  21.8959679  94.9514251  61.0977434  32.4146908  87.4955088
  60.3206876  32.0758068  87.0510250  61.7768914  32.4199532  86.8210053
  55.9129463  27.5341646  87.3861695  55.6079598  27.8487795  88.2371839
  56.8659905  27.6123066  87.4289028  54.3575894  33.6931869  89.0354649
  53.8297256  32.9584629  88.7227887  53.8563397  34.4706546  88.7894618
  59.3368740  31.8880890  94.1521696  58.6792415  32.5780151  94.2401824
  60.1409140  32.2777322  94.4955682  49.0894622  24.3551535  91.3961261
  49.6638374  24.1326717  90.6634454  49.6765604  24.4240230  92.1489862
  58.1474199  30.2425262  92.2025637  58.6606081  30.8755254  92.7047347
  58.7975423  29.6426458  91.8368997  49.4164209  26.3855996  85.4157146
  48.5801521  26.7230683  85.7366421  49.2768979  26.2504976  84.4784283
  51.3917290  21.2292784  90.1236330  50.7381702  20.9141802  89.4992945
  51.3497764  20.6068525  90.8496153  52.5028495  31.5112079  82.0389622
  51.5955556  31.2801333  82.2380771  52.9999527  30.7149699  82.2263604
  55.4096573  40.2209587  84.9586308  54.7358272  40.5241283  85.5671266
  55.7962395  41.0238667  84.6091766  54.6255030  27.7174718  94.4483978
  53.7077591  27.9389665  94.2905666  55.0415174  27.7921028  93.5895685
  55.4090078  29.1166134  89.5786658  56.1561897  29.6287531  89.2693780
  55.6781667  28.7950186  90.4391052  53.6816728  31.6124674  86.5613612
  52.7727947  31.3283707  86.6586082  53.7111812  32.0323753  85.7016919
  58.9135995  35.2231264  90.3304780  58.4598323  34.3822174  90.3869970
  58.2829962  35.8592662  90.6679560  57.8568915  26.1523250  91.5605447
  57.1191672  25.6400636  91.8915690  58.1095689  25.7123631  90.7488724
  57.3568935  37.0607760  91.2654598  57.6491909  37.6212818  90.5466964
  57.8667555  37.3536321  92.0207757  57.9580542  18.9299502  92.1547217
  58.2639419  18.0696865  91.8673132  58.6833147  19.5217122  91.9546211
  44.2504898  29.3330188  90.5428815  44.0529298  28.7399549  89.8179881
  43.6951562  29.0282399  91.2604753  52.2301622  29.2253295  92.6623408
  52.2850232  28.2727131  92.5865884  51.4192824  29.3812734  93.1464706
  53.3792816  33.1533418  83.9001691  52.9412246  32.4369277  83.4407328
  54.1203257  33.3809533  83.3386782  50.1693982  27.8430355  90.4213787
  49.3561848  28.1424525  90.8278979  50.6652976  27.4486043  91.1388269
  52.3202560  37.8388112  92.3548051  52.2778739  38.0648958  91.4256583
  53.2365259  37.6051486  92.5033852  55.7668194  28.3072179  99.2528681
  56.1217581  28.5343652 100.1123146  56.4140325  28.6390556  98.6305936
  61.4965931  31.4290615  89.9578010  61.3583829  31.6192211  89.0299199
  61.1402149  32.1909998  90.4146061  49.6608057  25.4148710  96.0375022
  50.3007436  25.2737469  95.3397985  48.8285587  25.1283224  95.6613624
  61.5235310  33.4967142  94.9689281  61.9571817  33.4042431  95.8172335
  62.2366891  33.4724642  94.3309297  50.4368361  34.7151141  92.1510014
  51.2308959  34.2201461  91.9492589  49.7260053  34.1869004  91.7877720
  55.2563205  37.0969236  96.5022382  55.3100227  37.6660172  97.2700098
  54.3877986  37.2671121  96.1376419  46.7451124  28.8594222  88.2269767
  45.8148712  28.7978678  88.4439729  46.8408596  28.3370175  87.4306408
  46.6636673  25.3849035  90.8148008  46.9243490  26.2994368  90.7057169
  47.4853845  24.9173478  90.9644621  48.1361598  26.7986792  97.9846833
  48.8084652  26.5904154  97.3359482  47.3091385  26.6008878  97.5452065
  62.3850860  33.5390843  97.5022166  62.5786750  34.4436653  97.7481441
  62.2851478  33.0798262  98.3360751  54.0387170  23.4248733 100.0012494
  53.3915086  24.1238683  99.9076970  54.8088186  23.8584877 100.3688742
  57.4465968  33.6897585 103.0763047  57.2951475  33.4608137 102.1593131
  57.4370648  34.6468187 103.0894392  54.2151305  31.2629498  98.0609314
  55.1443365  31.4140658  97.8878281  53.7942335  31.3513519  97.2057960
  53.0139637  35.2880163  95.8307851  52.8750722  34.9198947  96.7033789
  52.2254233  35.8027802  95.6591809  53.6087789  40.3889259  87.1733388
  53.7839544  39.9177302  87.9879010  52.9220577  41.0155025  87.4014648
  54.5644852  34.6661765  93.2196689  54.2294684  34.6262535  94.1154339
  54.0648797  34.0006481  92.7467099  48.5389096  30.0729395  98.7449270
  48.4008894  29.3409634  99.3460809  49.4494019  29.9838295  98.4633458
  57.5004043  32.0117800  83.4933749  56.8833214  31.2864628  83.3966801
  57.0320532  32.7727160  83.1500823  51.1671396  29.7849355  98.2332950
  51.8771015  29.1442547  98.1919568  51.1240705  30.0362249  99.1559131
  59.1558175  36.7216708 101.1539529  59.0970721  36.0375928 100.4870112
  59.5577693  37.4635698 100.7020155  49.8800330  26.7714572 100.0528589
  49.3437687  26.3205311 100.7050186  49.2917039  26.9060481  99.3099054
  48.1748874  43.5378622  93.9473248  48.4145472  44.1697146  94.6252266
  47.3318070  43.1866662  94.2338607  49.2902589  26.2303224  82.6155053
  48.4132056  26.1092025  82.2517300  49.7660342  25.4389302  82.3633942
  59.1575582  34.6856292  99.3853509  58.2702361  34.3482214  99.5079907
  59.7274133  33.9539323  99.6222274  40.8104729  31.0180384  92.7096560
  41.4975769  30.7042114  92.1217575  40.6552858  31.9221748  92.4363811
  45.6139452  25.9070580  97.1381584  45.5297640  25.2996250  96.4031994
  44.7922158  26.3979599  97.1391080  52.6876736  39.3457744  96.3514752
  52.6146907  40.1512716  96.8634056  52.2454129  39.5449710  95.5262773
  52.4766515  38.5829514  89.8617573  51.6934037  39.1251194  89.9555798
  53.1759261  39.1003494  90.2611815  55.7863165  24.3924144  92.5051779
  56.2831865  23.6394106  92.1852849  55.0150147  24.4288460  91.9394988
  63.6392923  30.0964509  94.1470070  63.6282799  30.9789225  93.7764003
  62.7710302  29.7436060  93.9524607  55.1475419  39.2444578  98.5072910
  55.8603391  39.8792043  98.4348812  54.6565448  39.3408444  97.6912912
  56.8692946  33.1495831  90.0790202  55.9349225  33.2697293  89.9094906
  57.0469615  32.2468298  89.8150212  52.3698134  26.5341527  92.2323463
  51.9995922  25.9812567  92.9204369  52.8657227  25.9299660  91.6798463
  60.2565498  28.9913150  90.6140236  60.7225950  29.8241142  90.5400539
  60.7072998  28.5258132  91.3185495  50.1987333  36.9939022  99.3278481
  50.8996792  37.6275505  99.4807876  49.7282448  37.3353753  98.5674121
  58.3241729  35.3356972  87.6126388  58.6001573  35.2213566  88.5220262
  57.4546227  34.9374456  87.5738561  58.2282160  21.3593737  94.6531138
  57.3145240  21.5897964  94.8213345  58.6575262  21.4432181  95.5045170
  57.9988619  29.5483629  97.1531032  57.3460069  29.7959537  96.4983484
  58.3768999  28.7347767  96.8193509  54.9595793  39.5843322  91.2559202
  55.1418187  38.7664978  91.7186954  55.7828779  39.8011015  90.8184092
  55.2937958  38.5111507  88.5174250  55.8225725  38.0003962  87.9044413
  55.5566178  38.1954038  89.3819783  54.0476192  30.2903440 103.6397069
  53.3716829  30.1897570 104.3099444  54.8703826  30.1342654 104.1033066
  45.7955051  36.5275377  96.2609584  46.3808488  35.7819065  96.3937488
  45.5979889  36.8379333  97.1446248  48.6493706  39.5626624  91.2772026
  47.9804081  40.0472752  90.7936066  48.5106576  39.8095845  92.1915405
  40.3872706  29.0980977  94.9814027  40.4256805  28.5644568  95.7751145
  39.8812998  28.5716183  94.3625004  52.7898975  41.5970368  97.8754685
  53.3417283  41.7601989  98.6403770  53.1305168  42.1874806  97.2034710
  47.7663468  23.9445517  98.4776569  47.8304794  24.8060348  98.0653967
  47.7030588  23.3319519  97.7448928  57.6409849  36.4231625 103.7303339
  58.1849753  37.0361583 103.2358294  57.0596694  36.9811204 104.2470352
  44.0181283  27.8245079  88.0567959  44.3134724  26.9155758  88.0035012
  43.1169319  27.8032819  87.7348961  55.9267362  39.5452343  94.8618367
  55.8018501  38.7442083  94.3529312  56.5846453  40.0398537  94.3732337
  47.5475530  25.9001076  94.0395507  46.8262116  26.5137043  93.9002980
  48.3368786  26.4358841  93.9612153  57.9902270  37.3461363  96.4897917
  57.0432606  37.2266714  96.4176244  58.3385043  36.4583861  96.5724178
  45.7469125  25.5059177  88.1807284  45.4181831  24.6256556  87.9982390
  46.1008495  25.4506846  89.0683673  54.9948704  37.1414080  92.6902269
  54.8473666  36.2130787  92.8709839  55.8202197  37.1634170  92.2059344
  48.8610948  25.7932147  88.5482761  49.2007020  26.3218068  87.8261370
  49.3083068  26.1312553  89.3241328  58.5982825  37.9642638  93.7767142
  59.5229373  37.7585500  93.6391593  58.4298129  37.7159039  94.6856483
  51.5554389  24.1769197  97.9985829  51.2151209  23.3777010  98.4006509
  50.8493395  24.4770908  97.4262663  52.2070861  21.2618510  96.4513152
  53.0296930  20.7878988  96.3292043  52.4508924  22.0408994  96.9511839
  50.8479095  24.2906768  86.7476054  51.5687458  24.6688021  86.2439771
  50.2244399  25.0095645  86.8511032  54.9910218  24.9951917  87.6834386
  55.2073832  25.8776555  87.3823215  54.5104285  24.6038131  86.9540028
  49.7309439  27.9537630  94.2605131  49.5854020  28.2677933  95.1529413
  49.2534643  28.5722531  93.7076030  51.5905822  24.9440178  94.3086021
  51.5767391  24.0481272  93.9718319  52.3078250  24.9510842  94.9424307
  53.4431953  25.3777519  96.3539148  53.1849731  26.2994589  96.3523478
  52.9116993  24.9807953  97.0439612  58.3878142  38.4828306  89.1329233
  58.5615019  37.9174728  88.3803086  58.8807033  39.2829201  88.9508723
  44.2055101  30.4942975  97.1992792  43.6608570  31.2702783  97.3313067
  45.0834451  30.8413779  97.0411914  50.9942718  23.8254559  89.5773591
  51.1158629  22.8971205  89.7764478  50.7044761  23.8393245  88.6651906
  53.8633909  21.5109469  92.7140311  53.8855605  21.5748802  91.7592290
  54.2801968  20.6713978  92.9080817  64.2417533  31.2464729  90.7519533
  64.6848679  30.4972054  90.3538656  63.3644043  31.2374865  90.3693265
  59.3753314  37.7995070  86.2326132  60.0704219  38.4201763  86.4513446
  59.7176464  36.9490421  86.5078510  44.9921123  29.6212871 100.0922949
  44.2502859  29.7695506 100.6787580  44.6713868  29.8821137  99.2289698
  61.2744737  35.2494776  87.7613462  61.7996061  35.5882048  87.0362782
  61.1867090  34.3141791  87.5776597  52.9364786  39.1628849  99.8903339
  53.2451912  38.9177996 100.7626039  53.7340268  39.3675488  99.4022209
  52.9585398  41.3166759  92.1208716  52.5190388  40.8243138  92.8141572
  53.7093515  40.7739727  91.8800791  45.4377737  37.5078300  92.1233344
  46.2635757  37.2082072  91.7431987  45.0871789  36.7385922  92.5723132
  50.4059270  36.8604768  94.1931017  49.7839279  36.1975473  93.8933245
  51.0764137  36.8865900  93.5104665  43.6386342  35.4264626  93.0822277
  42.8018250  34.9986801  92.9006279  43.6109988  35.6197070  94.0193068
  60.9638643  35.8827679 103.0664660  60.1734187  35.8651818 102.5269160
  60.7271998  36.4215973 103.8213697  61.0836518  32.7320146 100.3797389
  61.1334523  32.5670153 101.3212912  60.9750442  31.8647405  99.9895270
  49.9672777  35.4108691  87.6689478  50.1160897  36.0944156  87.0156151
  50.7739221  35.3913781  88.1838934  58.3740281  28.7151074 101.6956696
  59.2750144  28.5757539 101.4040693  58.4488255  28.8805529 102.6354873
  52.7083086  26.0917928 100.5409882  51.8386396  26.3851494 100.2692471
  52.9442566  26.6758373 101.2617146  62.5854715  35.1517087 100.6239410
  62.2939524  35.5147068 101.4602871  61.9726847  34.4384095 100.4452743
  63.7850398  32.7169967  93.1441981  64.6197289  33.1559771  93.3079541
  63.9209526  32.2408620  92.3250226  60.8341903  30.2749702  99.0919468
  61.3096025  30.4677348  98.2838320  59.9107469  30.3308888  98.8462852
  47.7225410  31.4373869  88.6750547  47.4771452  30.5336199  88.8730757
  47.8921325  31.4391019  87.7330025  55.4122120  22.3097545  98.0575302
  55.9304064  23.0458572  97.7321791  55.0577253  22.6161539  98.8922061
  46.9921058  27.1702227  86.1736708  46.2990303  27.2446582  85.5176744
  46.7472810  26.4062570  86.6958225  55.6634714  18.7297828  93.5776199
  55.9436468  18.0621017  94.2036626  56.4485321  18.9226924  93.0650863
  53.4668183  37.9056822  85.1401225  52.8942150  38.5247009  84.6871697
  54.0400976  38.4556183  85.6741147  59.5343572  27.1515462  97.3247774
  60.4860995  27.2513560  97.3459998  59.3647023  26.3593730  97.8345858
  57.5557952  24.2371045  97.5107175  56.9607884  24.5176058  96.8153664
  57.2707649  24.7264946  98.2823916  56.6865442  38.1893972  86.2709808
  57.6196116  38.1239534  86.4742683  56.5988655  39.0250239  85.8124340
  59.3153459  37.5059842  83.2313755  59.2367091  37.1719706  84.1249513
  60.1363126  37.9981610  83.2305227  62.0131650  30.3721582  96.4390074
  61.9807970  29.4337582  96.6249758  62.6232274  30.4505618  95.7055899
  53.8514981  29.2417635  82.4817278  54.7974086  29.1123843  82.5505696
  53.4729226  28.5032296  82.9586706  62.1626139  27.1632625  96.4848357
  61.6465187  26.3791082  96.2978286  63.0466087  26.8351342  96.6494876
  59.8236866  20.9073641  92.4444170  59.6261687  20.5988729  93.3287502
  60.4336571  21.6335279  92.5742099  67.8308200  31.4337588  95.5796111
  68.5611589  31.1722877  96.1403814  67.2215146  30.6966310  95.6198178
  65.9123497  29.5745451  96.1770562  65.1856661  29.4401416  95.5687053
  65.4970784  29.8822280  96.9827280  53.7353674  33.2935381 103.9417935
  54.6556683  33.4713980 104.1357981  53.7003257  32.3491426 103.7897634
  52.0357898  27.1667611  82.4172163  51.1289354  26.8700724  82.4934877
  52.3133879  26.8697429  81.5506449  42.9535839  28.4873974  92.8671209
  42.6338623  27.6339283  92.5745583  42.4069267  28.7022552  93.6229177
  46.7315746  31.2036415  96.5840716  46.9501756  32.1353523  96.6028750
  47.1441520  30.8444390  97.3695520  53.6519964  21.7104501  88.5716404
  52.8420692  21.3651586  88.9471650  54.3404381  21.4012044  89.1604016
  55.5810512  20.7882547  90.1940701  56.1341551  21.2078001  90.8530724
  55.8180599  19.8618296  90.2363657  50.8056683  24.0254546  82.5584142
  51.6675847  24.3509444  82.8179960  50.9907027  23.2386042  82.0457208
  42.8224099  32.1076886  94.8364331  42.1287570  31.6930839  94.3234285
  43.5697090  32.1497422  94.2397750  58.9589319  22.8983073  89.7019365
  58.3787988  23.5567877  89.3197418  58.6925252  22.0760417  89.2906783
  57.4092886  22.2988130  91.9040686  57.9092664  22.4104665  91.0955004
  58.0528494  21.9949183  92.5441494  44.7360841  32.0395140  92.7130346
  44.7131529  32.1382827  91.7612229  45.0461478  32.8860290  93.0347512
  47.3948219  34.0971295  96.8276960  48.3491473  34.0655237  96.7606892
  47.1960743  33.6361918  97.6427186  47.9847601  32.6672411  99.3947758
  48.8040490  33.1616489  99.4182595  48.2584409  31.7504379  99.3665325
  57.7414197  25.0583163  88.7575713  56.8540052  25.3432814  88.5395908
  58.1568186  24.8976926  87.9102990  61.0928734  25.0829684  92.4730053
  61.8689124  25.5726136  92.7454670  60.3676868  25.5087738  92.9301922
  63.5301292  25.7957303  93.5303993  64.1245783  25.5553039  92.8197302
  63.6027876  25.0764434  94.1577530  45.7498448  39.6390914  93.8447158
  45.6152916  38.8791315  93.2785156  45.3330510  40.3631814  93.3775947
  56.8857411  34.8227838  82.8523733  57.5893261  35.0277840  83.4681389
  56.1620060  35.3904600  83.1172817  57.7155221  30.5737699  88.9726004
  57.6590423  31.0306250  88.1333636  58.2683564  29.8128384  88.7948846
  61.5260027  26.3627431  89.7976123  61.2696961  25.9624066  90.6284331
  60.9012895  27.0771225  89.6726262  65.8372365  29.1023504  92.3047415
  65.2771923  29.1716693  93.0778977  65.2315868  28.9264489  91.5846911
  48.9067574  40.5360231  94.0565601  48.7899958  41.4805664  93.9544291
  48.0860020  40.2333793  94.4451400  58.7944108  35.2610367  84.9022193
  59.6289712  34.8291565  84.7199668  58.6328451  35.0892381  85.8299088
  58.4490000  31.7642480  86.2678533  58.3938804  31.5986752  85.3266977
  57.8236056  32.4718513  86.4240723  55.7635908  34.0691392 105.5932096
  56.6327067  34.2432044 105.2318730  55.2842659  34.8885809 105.4707825
  51.7586126  21.2650589  85.8463851  51.7464796  22.2092429  86.0032122
  52.6509548  21.0820735  85.5523312  49.9322088  41.1888493  97.2721529
  50.8349335  41.2212103  97.5888024  49.7059458  40.2588944  97.2867865
  51.6875690  39.9419480  93.9331608  50.7371321  39.9421341  93.8195980
  51.9908176  39.1952214  93.4167642  55.5738245  17.8593366  90.1009788
  54.8070641  17.3051853  90.2466470  55.9848950  17.9315235  90.9623940
  67.4228383  45.7780018  94.9977370  68.0606793  45.6586765  94.2940710
  67.3049226  46.7260862  95.0565322  64.2318090  45.7307446  94.9338895
  63.8936601  45.6148511  94.0459430  65.1007858  45.3298611  94.9139901
  60.0904905  47.5842922  90.9235786  59.5269770  47.4932859  90.1552074
  59.9757300  46.7642827  91.4038278  64.7137873  46.8842298 100.8925100
  64.7026513  46.4895096 100.0205604  64.8758512  46.1508370 101.4858872
  57.6369337  49.0794114  93.7620006  58.4290629  48.7384939  93.3466306
  57.8765987  49.1889089  94.6822160  65.6704464  51.2513890  86.2350251
  65.0192444  51.8367971  85.8484265  66.4648827  51.7820085  86.2945288
  59.5960091  48.3403027  86.6337385  60.3690967  47.7932014  86.4950261
  59.9485490  49.2047277  86.8451847  61.4345134  49.6679410  99.8404284
  61.1435000  50.5725040  99.7250951  62.0702118  49.7095937 100.5548354
  62.3601341  47.0456258  96.4305644  62.9564913  46.8212281  95.7162607
  62.4176312  46.3041004  97.0331092  61.9326369  44.4995693  84.2655835
  62.1851890  43.9777215  83.5039298  60.9950928  44.3361839  84.3682519
  66.9769652  43.5031472  92.0730578  67.7632741  43.0850895  91.7220995
  67.2408356  44.4077564  92.2412227  67.1479729  48.9404322  86.7719235
  66.5125562  49.0138949  87.4840140  66.8177136  49.5297921  86.0938314
  72.3778079  43.4406705  92.9763557  73.1103251  42.8705922  93.2101386
  71.6217435  43.0528305  93.4170062  61.6522658  46.4023799  86.4680210
  61.5358916  45.7268703  87.1361294  61.7624918  45.9156173  85.6512363
  63.9954199  45.8633947  90.1726899  63.6312406  45.3364567  90.8839821
  64.8521315  45.4732416  89.9993385  69.9003499  37.1528279  97.4358165
  69.5686824  38.0223690  97.2119380  69.3049113  36.8364563  98.1152196
  63.6359686  40.8923846  85.1688248  63.8034088  41.7604083  85.5358719
  63.4456855  41.0551128  84.2449537  66.3935019  49.3540825  96.8354078
  66.0935742  50.2565864  96.7269885  66.0486078  49.0873008  97.6875231
  59.8447500  45.8054622  92.8690783  58.9197997  45.6730836  93.0768474
  60.0931914  46.5848841  93.3660725  69.7932163  41.8723365  94.5151515
  68.8849040  41.8038774  94.2210276  69.7419758  42.3495310  95.3433341
  63.6148907  43.3481504  86.1534915  63.4948532  43.7938554  86.9920395
  62.9201495  43.6966821  85.5948453  57.2056311  45.4487896  93.7034572
  57.3348693  45.7022374  94.6173983  56.5253763  46.0415604  93.3839227
  61.3755799  56.1185145  89.8025046  61.2979828  57.0692971  89.8813526
  60.7717442  55.7731018  90.4599972  63.8673028  43.2913011 102.4586413
  63.0906362  43.8506931 102.4489277  64.5063591  43.7769794 102.9801283
  71.6593809  40.0739804  96.2929389  71.0168189  40.3672337  95.6469184
  71.1548738  39.9592724  97.0982586  69.3133973  43.8202977  86.9815249
  70.2251829  44.0530364  86.8062946  68.8043620  44.4040021  86.4190327
  62.1219401  46.0998464 102.0204380  62.8634085  46.6383508 101.7439203
  61.4156386  46.7264753 102.1775932  67.5974740  48.2427605 100.6176541
  68.0058096  47.8010015  99.8731174  66.8752002  47.6680232 100.8710734
  63.9505810  43.1800211  97.9910098  64.7967006  43.6039625  98.1344747
  63.8904448  42.5233836  98.6848661  67.9203555  48.8028795  94.3728830
  67.2912417  48.9674509  93.6704898  67.5329217  49.2170405  95.1439794
  71.7992787  49.7383233  91.7273194  71.1143825  50.1182135  91.1770227
  71.8836636  50.3478560  92.4605142  67.1005256  40.8404580  99.6491272
  66.8566188  41.5946640  99.1125547  67.3765186  41.2189927 100.4838519
  69.0543719  47.3843192  98.3268537  69.2660614  48.0274952  97.6502918
  69.0073467  46.5505509  97.8590467  66.6569947  39.9961013  95.2305110
  65.7954427  40.2942266  95.5221847  66.6832382  40.2131412  94.2986142
  63.4731517  48.5403203  91.6378915  63.9369862  48.8190906  90.8483538
  63.2088315  47.6386648  91.4552006  60.3655598  48.0874685  94.5758678
  60.9356955  48.5161953  93.9376163  60.9563710  47.8057270  95.2742864
  62.4100403  44.6626356  88.4468480  63.1124446  45.1147399  88.9142407
  62.0781031  44.0210175  89.0748373  60.8580764  43.2538112 102.8219690
  60.2279425  43.9354393 103.0555087  60.7516852  43.1421194 101.8772828
  56.1525737  42.9209908  93.7485614  55.3624791  43.1767437  93.2725725
  56.6436984  43.7358246  93.8537654  70.1689546  50.2615148  96.4990895
  70.9906990  49.8595335  96.2173576  70.1651949  50.1583382  97.4507011
  58.1040482  43.2854488  90.7069091  57.3071646  43.3973182  91.2252586
  57.8766074  43.6241140  89.8409981  63.9346150  49.8099191  98.6551605
  63.9990582  50.2719598  99.4909777  63.2257074  49.1796556  98.7833915
  54.4363440  43.1740399  96.1800605  54.6871478  44.0587409  96.4458181
  54.9722988  42.9945000  95.4075697  78.2595540  46.6053896  92.8475866
  77.5059248  46.0361294  92.6919871  78.3943081  46.5716561  93.7946501
  63.6494168  51.4767298  88.5230586  63.5139842  52.3218834  88.9515433
  64.1903980  51.6786576  87.7596519  60.1361507  37.5558878 105.1844941
  59.7428453  37.0025077 105.8592585  60.9527648  37.8669457 105.5751458
  57.1023565  48.9942736  89.0958511  57.6148086  49.7885987  89.2464075
  57.7546278  48.2969027  89.0292112  58.9118450  52.1108493  91.1781264
  59.0885078  53.0326457  90.9902248  59.7075283  51.7966912  91.6075644
  63.0529468  38.9716757 102.7765197  63.7939182  39.5723911 102.6969660
  63.2847391  38.2294395 102.2183240  58.1970806  44.1573125 101.0543427
  58.0824321  43.2558382 101.3550526  57.3415324  44.4036821 100.7028244
  65.2762644  52.0990865 102.6530928  64.8326498  51.3127244 102.3351832
  65.9379858  52.2870015 101.9874818  60.0349765  53.6286667  97.1791606
  60.5857190  53.5003730  96.4068600  59.1961241  53.9281556  96.8286499
  67.3743882  52.3793665 100.6812329  67.3562357  53.2002546 100.1892598
  68.2963802  52.2547740 100.9062470  63.8316936  49.8937794 101.5235837
  64.3645273  49.1326083 101.2935145  63.3031017  49.6011446 102.2659992
  66.9986631  34.9997860  97.0529479  66.6550901  35.8899502  96.9768590
  67.3665594  34.8099518  96.1899064  55.0672482  47.3231391  89.8718081
  55.9047704  47.7328399  89.6551789  55.2450749  46.3830833  89.8418275
  66.9636914  44.9906471  85.5601914  66.4483537  45.7611076  85.7990302
  66.6914222  44.3171608  86.1834976  64.5484025  39.8356172  90.6187153
  63.6925621  39.4463023  90.4392791  64.9610977  39.9148133  89.7586938
  66.0783172  37.3702515  95.0178712  65.5747967  37.3332651  94.2046518
  66.3713778  38.2795258  95.0775369  62.3226057  37.4541245  94.0244894
  63.1879054  37.2584054  93.6650783  62.3903566  37.2251597  94.9514251
  71.9371188  47.7438826  87.4955088  71.1600631  47.4049986  87.0510250
  72.6162669  47.7491449  86.8210053  66.7523217  42.8633564  87.3861695
  66.4473353  43.1779713  88.2371839  67.7053659  42.9414983  87.4289028
  65.1969649  49.0223787  89.0354649  64.6691010  48.2876546  88.7227887
  64.6957152  49.7998463  88.7894618  70.1762495  47.2172807  94.1521696
  69.5186169  47.9072069  94.2401824  70.9802894  47.6069239  94.4955682
  59.9288376  39.6843453  91.3961261  60.5032128  39.4618635  90.6634454
  60.5159359  39.7532148  92.1489862  68.9867954  45.5717180  92.2025637
  69.4999835  46.2047172  92.7047347  69.6369178  44.9718376  91.8368997
  60.2557964  41.7147914  85.4157146  59.4195276  42.0522601  85.7366421
  60.1162733  41.5796894  84.4784283  62.2311044  36.5584702  90.1236330
  61.5775457  36.2433719  89.4992945  62.1891518  35.9360442  90.8496153
  63.3422249  46.8403997  82.0389622  62.4349311  46.6093251  82.2380771
  63.8393281  46.0441616  82.2263604  66.2490328  55.5501504  84.9586308
  65.5752027  55.8533201  85.5671266  66.6356150  56.3530585  84.6091766
  65.4648785  43.0466636  94.4483978  64.5471346  43.2681583  94.2905666
  65.8808928  43.1212946  93.5895685  66.2483832  44.4458051  89.5786658
  66.9955651  44.9579448  89.2693780  66.5175422  44.1242104  90.4391052
  64.5210483  46.9416592  86.5613612  63.6121702  46.6575625  86.6586082
  64.5505566  47.3615671  85.7016919  69.7529750  50.5523181  90.3304780
  69.2992077  49.7114091  90.3869970  69.1223717  51.1884580  90.6679560
  68.6962669  41.4815167  91.5605447  67.9585426  40.9692554  91.8915690
  68.9489443  41.0415549  90.7488724  68.1962689  52.3899678  91.2654598
  68.4885664  52.9504735  90.5466964  68.7061310  52.6828239  92.0207757
  68.7974297  34.2591420  92.1547217  69.1033174  33.3988783  91.8673132
  69.5226902  34.8509040  91.9546211  55.0898653  44.6622106  90.5428815
  54.8923053  44.0691467  89.8179881  54.5345317  44.3574316  91.2604753
  63.0695377  44.5545213  92.6623408  63.1243986  43.6019049  92.5865884
  62.2586579  44.7104652  93.1464706  64.2186570  48.4825336  83.9001691
  63.7806000  47.7661195  83.4407328  64.9597011  48.7101450  83.3386782
  61.0087736  43.1722272  90.4213787  60.1955602  43.4716443  90.8278979
  61.5046731  42.7777961  91.1388269  63.1596314  53.1680029  92.3548051
  63.1172493  53.3940876  91.4256583  64.0759013  52.9343404  92.5033852
  66.6061948  43.6364097  99.2528681  66.9611336  43.8635570 100.1123146
  67.2534079  43.9682474  98.6305936  72.3359685  46.7582533  89.9578010
  72.1977584  46.9484129  89.0299199  71.9795904  47.5201915  90.4146061
  60.5001811  40.7440628  96.0375022  61.1401191  40.6029387  95.3397985
  59.6679342  40.4575141  95.6613624  72.3629065  48.8259060  94.9689281
  72.7965571  48.7334349  95.8172335  73.0760645  48.8016560  94.3309297
  61.2762115  50.0443058  92.1510014  62.0702714  49.5493378  91.9492589
  60.5653808  49.5160921  91.7877720  66.0956960  52.4261154  96.5022382
  66.1493982  52.9952090  97.2700098  65.2271741  52.5963039  96.1376419
  57.5844879  44.1886140  88.2269767  56.6542467  44.1270595  88.4439729
  57.6802351  43.6662093  87.4306408  57.5030428  40.7140953  90.8148008
  57.7637245  41.6286286  90.7057169  58.3247600  40.2465395  90.9644621
  58.9755353  42.1278710  97.9846833  59.6478406  41.9196072  97.3359482
  58.1485140  41.9300796  97.5452065  73.2244614  48.8682760  97.5022166
  73.4180504  49.7728571  97.7481441  73.1245232  48.4090179  98.3360751
  64.8780925  38.7540651 100.0012494  64.2308840  39.4530601  99.9076970
  65.6481940  39.1876795 100.3688742  68.2859723  49.0189503 103.0763047
  68.1345229  48.7900055 102.1593131  68.2764402  49.9760105 103.0894392
  65.0545059  46.5921416  98.0609314  65.9837119  46.7432575  97.8878281
  64.6336089  46.6805437  97.2057960  63.8533391  50.6172080  95.8307851
  63.7144477  50.2490865  96.7033789  63.0647987  51.1319720  95.6591809
  64.4481543  55.7181177  87.1733388  64.6233299  55.2469220  87.9879010
  63.7614331  56.3446943  87.4014648  65.4038606  49.9953683  93.2196689
  65.0688439  49.9554453  94.1154339  64.9042552  49.3298399  92.7467099
  59.3782850  45.4021313  98.7449270  59.2402648  44.6701552  99.3460809
  60.2887774  45.3130213  98.4633458  68.3397798  47.3409717  83.4933749
  67.7226969  46.6156545  83.3966801  67.8714286  48.1019078  83.1500823
  62.0065151  45.1141272  98.2332950  62.7164769  44.4734464  98.1919568
  61.9634459  45.3654167  99.1559131  69.9951930  52.0508626 101.1539529
  69.9364476  51.3667846 100.4870112  70.3971448  52.7927616 100.7020155
  60.7194085  42.1006490 100.0528589  60.1831442  41.6497229 100.7050186
  60.1310793  42.2352399  99.3099054  59.0142628  58.8670539  93.9473248
  59.2539227  59.4989064  94.6252266  58.1711825  58.5158579  94.2338607
  60.1296344  41.5595142  82.6155053  59.2525810  41.4383942  82.2517300
  60.6054097  40.7681220  82.3633942  69.9969337  50.0148210  99.3853509
  69.1096116  49.6774131  99.5079907  70.5667888  49.2831241  99.6222274
  51.6498484  46.3472301  92.7096560  52.3369524  46.0334031  92.1217575
  51.4946613  47.2513666  92.4363811  56.4533206  41.2362498  97.1381584
  56.3691395  40.6288167  96.4031994  55.6315913  41.7271516  97.1391080
  63.5270490  54.6749662  96.3514752  63.4540662  55.4804633  96.8634056
  63.0847883  54.8741628  95.5262773  63.3160270  53.9121432  89.8617573
  62.5327792  54.4543112  89.9555798  64.0153015  54.4295412  90.2611815
  66.6256920  39.7216061  92.5051779  67.1225620  38.9686024  92.1852849
  65.8543901  39.7580378  91.9394988  74.4786677  45.4256427  94.1470070
  74.4676554  46.3081142  93.7764003  73.6104057  45.0727978  93.9524607
  65.9869174  54.5736496  98.5072910  66.6997146  55.2083961  98.4348812
  65.4959202  54.6700362  97.6912912  67.7086701  48.4787749  90.0790202
  66.7742979  48.5989211  89.9094906  67.8863369  47.5760215  89.8150212
  63.2091889  41.8633444  92.2323463  62.8389676  41.3104485  92.9204369
  63.7050981  41.2591578  91.6798463  71.0959252  44.3205068  90.6140236
  71.5619704  45.1533059  90.5400539  71.5466753  43.8550049  91.3185495
  61.0381087  52.3230939  99.3278481  61.7390547  52.9567422  99.4807876
  60.5676202  52.6645671  98.5674121  69.1635483  50.6648889  87.6126388
  69.4395327  50.5505484  88.5220262  68.2939982  50.2666374  87.5738561
  69.0675915  36.6885655  94.6531138  68.1538995  36.9189882  94.8213345
  69.4969016  36.7724099  95.5045170  68.8382373  44.8775547  97.1531032
  68.1853823  45.1251454  96.4983484  69.2162753  44.0639685  96.8193509
  65.7989547  54.9135240  91.2559202  65.9811942  54.0956896  91.7186954
  66.6222533  55.1302932  90.8184092  66.1331713  53.8403425  88.5174250
  66.6619479  53.3295880  87.9044413  66.3959932  53.5245955  89.3819783
  64.8869946  45.6195358 103.6397069  64.2110583  45.5189487 104.3099444
  65.7097580  45.4634572 104.1033066  56.6348805  51.8567294  96.2609584
  57.2202242  51.1110982  96.3937488  56.4373644  52.1671251  97.1446248
  59.4887461  54.8918542  91.2772026  58.8197836  55.3764669  90.7936066
  59.3500330  55.1387762  92.1915405  51.2266460  44.4272895  94.9814027
  51.2650560  43.8936485  95.7751145  50.7206753  43.9008100  94.3625004
  63.6292729  56.9262285  97.8754685  64.1811037  57.0893907  98.6403770
  63.9698923  57.5166723  97.2034710  58.6057222  39.2737435  98.4776569
  58.6698549  40.1352266  98.0653967  58.5424343  38.6611437  97.7448928
  58.0809495  41.3460568 102.1249604  58.7081534  40.9637645 102.7387128
  57.2237414  41.1274770 102.4905296  68.4803603  51.7523543 103.7303339
  69.0243507  52.3653501 103.2358294  67.8990448  52.3103121 104.2470352
  54.8575038  43.1536997  88.0567959  55.1528479  42.2447675  88.0035012
  53.9563073  43.1324736  87.7348961  66.7661116  54.8744261  94.8618367
  66.6412256  54.0734001  94.3529312  67.4240208  55.3690454  94.3732337
  58.3869285  41.2292993  94.0395507  57.6655870  41.8428961  93.9002980
  59.1762540  41.7650758  93.9612153  68.8296025  52.6753281  96.4897917
  67.8826360  52.5558632  96.4176244  69.1778798  51.7875779  96.5724178
  61.1895598  38.5647420 100.3136159  61.7130000  38.8109716 101.0762468
  60.9707931  39.3967455  99.8939296  56.5862879  40.8351094  88.1807284
  56.2575585  39.9548473  87.9982390  56.9402250  40.7798763  89.0683673
  65.8342458  52.4705997  92.6902269  65.6867421  51.5422705  92.8709839
  66.6595952  52.4926088  92.2059344  59.7004702  41.1224064  88.5482761
  60.0400775  41.6509986  87.8261370  60.1476823  41.4604470  89.3241328
  69.4376580  53.2934556  93.7767142  70.3623127  53.0877417  93.6391593
  69.2691883  53.0450957  94.6856483  62.3948143  39.5061115  97.9985829
  62.0544964  38.7068928  98.4006509  61.6887150  39.8062826  97.4262663
  63.0464615  36.5910427  96.4513152  63.8690684  36.1170906  96.3292043
  63.2902679  37.3700911  96.9511839  61.6872850  39.6198686  86.7476054
  62.4081212  39.9979939  86.2439771  61.0638154  40.3387563  86.8511032
  65.8303972  40.3243835  87.6834386  66.0467587  41.2068473  87.3823215
  65.3498040  39.9330048  86.9540028  60.5703194  43.2829548  94.2605131
  60.4247775  43.5969851  95.1529413  60.0928397  43.9014448  93.7076030
  62.4299577  40.2732096  94.3086021  62.4161145  39.3773189  93.9718319
  63.1472005  40.2802760  94.9424307  64.2825707  40.7069436  96.3539148
  64.0243485  41.6286507  96.3523478  63.7510748  40.3099871  97.0439612
  69.2271896  53.8120223  89.1329233  69.4008774  53.2466646  88.3803086
  69.7200787  54.6121118  88.9508723  55.0448856  45.8234892  97.1992792
  54.5002324  46.5994700  97.3313067  55.9228206  46.1705697  97.0411914
  61.8336473  39.1546476  89.5773591  61.9552384  38.2263123  89.7764478
  61.5438515  39.1685162  88.6651906  64.7027663  36.8401387  92.7140311
  64.7249360  36.9040720  91.7592290  65.1195722  36.0005895  92.9080817
  75.0811287  46.5756646  90.7519533  75.5242433  45.8263972  90.3538656
  74.2037798  46.5666783  90.3693265  70.2147069  53.1286988  86.2326132
  70.9097973  53.7493680  86.4513446  70.5570219  52.2782339  86.5078510
  55.8314878  44.9504789 100.0922949  55.0896614  45.0987424 100.6787580
  55.5107622  45.2113054  99.2289698  72.1138492  50.5786693  87.7613462
  72.6389816  50.9173966  87.0362782  72.0260844  49.6433709  87.5776597
  63.7758540  54.4920767  99.8903339  64.0845667  54.2469914 100.7626039
  64.5734023  54.6967405  99.4022209  63.7979153  56.6458677  92.1208716
  63.3584143  56.1535055  92.8141572  64.5487269  56.1031644  91.8800791
  56.2771492  52.8370217  92.1233344  57.1029511  52.5373989  91.7431987
  55.9265544  52.0677840  92.5723132  61.2453025  52.1896686  94.1931017
  60.6233034  51.5267391  93.8933245  61.9157892  52.2157818  93.5104665
  54.4780097  50.7556544  93.0822277  53.6412005  50.3278718  92.9006279
  54.4503742  50.9488987  94.0193068  61.3177552  40.6678474 103.7863523
  61.3665708  41.5440597 103.4041293  61.8600066  40.1255867 103.2135167
  71.8032398  51.2119597 103.0664660  71.0127942  51.1943736 102.5269160
  71.5665752  51.7507891 103.8213697  71.9230273  48.0612063 100.3797389
  71.9728278  47.8962071 101.3212912  71.8144196  47.1939322  99.9895270
  60.8066532  50.7400609  87.6689478  60.9554652  51.4236073  87.0156151
  61.6132975  50.7205699  88.1838934  69.2134035  44.0442991 101.6956696
  70.1143898  43.9049456 101.4040693  69.2882010  44.2097446 102.6354873
  63.5476841  41.4209846 100.5409882  62.6780150  41.7143412 100.2692471
  63.7836321  42.0050291 101.2617146  73.4248470  50.4809005 100.6239410
  73.1333278  50.8438985 101.4602871  72.8120601  49.7676013 100.4452743
  74.6244152  48.0461885  93.1441981  75.4591043  48.4851689  93.3079541
  74.7603281  47.5700538  92.3250226  71.6735658  45.6041619  99.0919468
  72.1489780  45.7969266  98.2838320  70.7501223  45.6600805  98.8462852
  58.5619165  46.7665787  88.6750547  58.3165207  45.8628117  88.8730757
  58.7315079  46.7682937  87.7330025  66.2515874  37.6389463  98.0575302
  66.7697818  38.3750490  97.7321791  65.8971007  37.9453456  98.8922061
  57.8314812  42.4994144  86.1736708  57.1384057  42.5738499  85.5176744
  57.5866564  41.7354488  86.6958225  66.5028469  34.0589746  93.5776199
  66.7830222  33.3912935  94.2036626  67.2879076  34.2518841  93.0650863
  64.3061937  53.2348739  85.1401225  63.7335904  53.8538927  84.6871697
  64.8794731  53.7848101  85.6741147  70.3737327  42.4807380  97.3247774
  71.3254750  42.5805477  97.3459998  70.2040777  41.6885648  97.8345858
  68.3951706  39.5662963  97.5107175  67.8001639  39.8467975  96.8153664
  68.1101403  40.0556864  98.2823916  67.5259197  53.5185890  86.2709808
  68.4589870  53.4531451  86.4742683  67.4382410  54.3542156  85.8124340
  70.1547214  52.8351760  83.2313755  70.0760845  52.5011624  84.1249513
  70.9756880  53.3273528  83.2305227  72.8525405  45.7013499  96.4390074
  72.8201725  44.7629500  96.6249758  73.4626028  45.7797536  95.7055899
  64.6908736  44.5709552  82.4817278  65.6367840  44.4415760  82.5505696
  64.3122981  43.8324214  82.9586706  73.0019893  42.4924543  96.4848357
  72.4858942  41.7082999  96.2978286  73.8859842  42.1643259  96.6494876
  70.6630620  36.2365558  92.4444170  70.4655441  35.9280646  93.3287502
  71.2730326  36.9627197  92.5742099  78.6701955  46.7629506  95.5796111
  79.4005343  46.5014794  96.1403814  78.0608900  46.0258228  95.6198178
  76.7517252  44.9037369  96.1770562  76.0250415  44.7693334  95.5687053
  76.3364539  45.2114197  96.9827280  64.5747428  48.6227298 103.9417935
  65.4950438  48.8005897 104.1357981  64.5397011  47.6783344 103.7897634
  62.8751653  42.4959529  82.4172163  61.9683108  42.1992641  82.4934877
  63.1527634  42.1989347  81.5506449  53.7929593  43.8165892  92.8671209
  53.4732377  42.9631200  92.5745583  53.2463021  44.0314470  93.6229177
  57.5709501  46.5328333  96.5840716  57.7895510  47.4645441  96.6028750
  57.9835275  46.1736307  97.3695520  64.4913718  37.0396418  88.5716404
  63.6814447  36.6943503  88.9471650  65.1798135  36.7303962  89.1604016
  66.4204267  36.1174465  90.1940701  66.9735305  36.5369919  90.8530724
  66.6574353  35.1910213  90.2363657  62.4437366  42.1061539 105.9743465
  62.3434093  43.0555896 105.9055556  62.2258908  41.7779778 105.1019535
  61.6450437  39.3546464  82.5584142  62.5069601  39.6801362  82.8179960
  61.8300782  38.5677960  82.0457208  53.6617853  47.4368804  94.8364331
  52.9681325  47.0222756  94.3234285  54.4090844  47.4789340  94.2397750
  69.7983074  38.2274990  89.7019365  69.2181743  38.8859794  89.3197418
  69.5319007  37.4052335  89.2906783  68.2486640  37.6280048  91.9040686
  68.7486419  37.7396583  91.0955004  68.8922248  37.3241101  92.5441494
  62.3068636  45.5358678 104.7908526  61.8235718  46.3359038 104.9972416
  62.3929575  45.5466622 103.8375970  55.5754596  47.3687057  92.7130346
  55.5525284  47.4674745  91.7612229  55.8855232  48.2152208  93.0347512
  58.2341974  49.4263212  96.8276960  59.1885227  49.3947155  96.7606892
  58.0354497  48.9653836  97.6427186  58.8241356  47.9964328  99.3947758
  59.6434245  48.4908407  99.4182595  59.0978163  47.0796296  99.3665325
  68.5807952  40.3875081  88.7575713  67.6933807  40.6724731  88.5395908
  68.9961941  40.2268844  87.9102990  71.9322488  40.4121602  92.4730053
  72.7082878  40.9018054  92.7454670  71.2070622  40.8379656  92.9301922
  74.3695047  41.1249221  93.5303993  74.9639537  40.8844957  92.8197302
  74.4421630  40.4056351  94.1577530  56.5892202  54.9682832  93.8447158
  56.4546670  54.2083233  93.2785156  56.1724265  55.6923732  93.3775947
  67.7251165  50.1519755  82.8523733  68.4287015  50.3569758  83.4681389
  67.0013814  50.7196517  83.1172817  68.5548976  45.9029617  88.9726004
  68.4984177  46.3598168  88.1333636  69.1077318  45.1420301  88.7948846
  72.3653782  41.6919348  89.7976123  72.1090716  41.2915984  90.6284331
  71.7406650  42.4063142  89.6726262  76.6766119  44.4315422  92.3047415
  76.1165677  44.5008611  93.0778977  76.0709623  44.2556406  91.5846911
  59.7461328  55.8652149  94.0565601  59.6293712  56.8097581  93.9544291
  58.9253774  55.5625710  94.4451400  69.6337863  50.5902285  84.9022193
  70.4683467  50.1583483  84.7199668  69.4722206  50.4184298  85.8299088
  69.2883755  47.0934398  86.2678533  69.2332559  46.9278669  85.3266977
  68.6629810  47.8010431  86.4240723  54.0776270  42.3302462 100.0939955
  54.7235134  41.8201416 100.5827180  53.8693421  43.0671144 100.6683380
  66.6029662  49.3983310 105.5932096  67.4720822  49.5723962 105.2318730
  66.1236414  50.2177727 105.4707825  62.5979880  36.5942507  85.8463851
  62.5858550  37.5384347  86.0032122  63.4903302  36.4112652  85.5523312
  60.7715842  56.5180411  97.2721529  61.6743089  56.5504021  97.5888024
  60.5453212  55.5880862  97.2867865  62.5269444  55.2711397  93.9331608
  61.5765075  55.2713259  93.8195980  62.8301931  54.5244132  93.4167642
  66.4132000  33.1885283  90.1009788  65.6464396  32.6343770  90.2466470
  66.8242705  33.2607152  90.9623940  58.4173761  39.4770079 104.1914969
  59.2805222  39.1206884 104.4018294  57.8439172  39.1383974 104.8790374
  78.2622138  61.1071936  94.9977370  78.9000548  60.9878683  94.2940710
  78.1442981  62.0552780  95.0565322  75.0711844  61.0599364  94.9338895
  74.7330356  60.9440428  94.0459430  75.9401612  60.6590529  94.9139901
  70.9298660  62.9134840  90.9235786  70.3663525  62.8224777  90.1552074
  70.8151055  62.0934745  91.4038278  75.5531627  62.2134215 100.8925100
  75.5420268  61.8187014 100.0205604  75.7152267  61.4800288 101.4858872
  68.4763092  64.4086032  93.7620006  69.2684384  64.0676856  93.3466306
  68.7159742  64.5181007  94.6822160  76.5098219  66.5805808  86.2350251
  75.8586198  67.1659888  85.8484265  77.3042581  67.1112003  86.2945288
  70.4353846  63.6694945  86.6337385  71.2084722  63.1223932  86.4950261
  70.7879245  64.5339194  86.8451847  72.2738888  64.9971327  99.8404284
  71.9828754  65.9016958  99.7250951  72.9095873  65.0387855 100.5548354
  73.1995095  62.3748176  96.4305644  73.7958667  62.1504198  95.7162607
  73.2570067  61.6332921  97.0331092  72.7720124  59.8287611  84.2655835
  73.0245644  59.3069132  83.5039298  71.8344683  59.6653757  84.3682519
  77.8163406  58.8323389  92.0730578  78.6026496  58.4142813  91.7220995
  78.0802111  59.7369482  92.2412227  77.9873484  64.2696240  86.7719235
  77.3519317  64.3430866  87.4840140  77.6570890  64.8589839  86.0938314
  83.2171833  58.7698623  92.9763557  83.9497005  58.1997840  93.2101386
  82.4611189  58.3820223  93.4170062  72.4916412  61.7315717  86.4680210
  72.3752670  61.0560620  87.1361294  72.6018672  61.2448091  85.6512363
  74.8347953  61.1925864  90.1726899  74.4706160  60.6656485  90.8839821
  75.6915069  60.8024333  89.9993385  80.7397254  52.4820197  97.4358165
  80.4080579  53.3515608  97.2119380  80.1442867  52.1656481  98.1152196
  74.4753440  56.2215764  85.1688248  74.6427843  57.0896000  85.5358719
  74.2850609  56.3843046  84.2449537  77.2328773  64.6832743  96.8354078
  76.9329496  65.5857782  96.7269885  76.8879833  64.4164926  97.6875231
  70.6841255  61.1346540  92.8690783  69.7591751  61.0022754  93.0768474
  70.9325668  61.9140759  93.3660725  80.6325917  57.2015283  94.5151515
  79.7242794  57.1330691  94.2210276  80.5813513  57.6787228  95.3433341
  74.4542661  58.6773421  86.1534915  74.3342286  59.1230472  86.9920395
  73.7595249  59.0258739  85.5948453  68.0450066  60.7779813  93.7034572
  68.1742447  61.0314292  94.6173983  67.3647517  61.3707521  93.3839227
  72.2149553  71.4477063  89.8025046  72.1373583  72.3984888  89.8813526
  71.6111197  71.1022936  90.4599972  74.7066783  58.6204929 102.4586413
  73.9300117  59.1798849 102.4489277  75.3457346  59.1061712 102.9801283
  82.4987564  55.4031721  96.2929389  81.8561944  55.6964255  95.6469184
  81.9942492  55.2884642  97.0982586  80.1527727  59.1494895  86.9815249
  81.0645583  59.3822281  86.8062946  79.6437374  59.7331939  86.4190327
  72.9613155  61.4290382 102.0204380  73.7027840  61.9675426 101.7439203
  72.2550141  62.0556671 102.1775932  78.4368495  63.5719522 100.6176541
  78.8451851  63.1301933  99.8731174  77.7145756  62.9972150 100.8710734
  74.7899565  58.5092129  97.9910098  75.6360760  58.9331543  98.1344747
  74.7298203  57.8525753  98.6848661  78.7597310  64.1320713  94.3728830
  78.1306172  64.2966427  93.6704898  78.3722972  64.5462323  95.1439794
  82.6386541  65.0675151  91.7273194  81.9537580  65.4474052  91.1770227
  82.7230391  65.6770478  92.4605142  77.9399010  56.1696498  99.6491272
  77.6959942  56.9238558  99.1125547  78.2158941  56.5481845 100.4838519
  79.8937473  62.7135110  98.3268537  80.1054368  63.3566870  97.6502918
  79.8467221  61.8797426  97.8590467  77.4963702  55.3252931  95.2305110
  76.6348181  55.6234184  95.5221847  77.5226137  55.5423329  94.2986142
  74.3125271  63.8695121  91.6378915  74.7763617  64.1482824  90.8483538
  74.0482069  62.9678566  91.4552006  71.2049352  63.4166603  94.5758678
  71.7750710  63.8453871  93.9376163  71.7957464  63.1349187  95.2742864
  73.2494157  59.9918273  88.4468480  73.9518201  60.4439317  88.9142407
  72.9174786  59.3502092  89.0748373  71.6974519  58.5830030 102.8219690
  71.0673180  59.2646311 103.0555087  71.5910607  58.4713112 101.8772828
  66.9919491  58.2501826  93.7485614  66.2018545  58.5059355  93.2725725
  67.4830739  59.0650164  93.8537654  81.0083301  65.5907065  96.4990895
  81.8300745  65.1887253  96.2173576  81.0045704  65.4875299  97.4507011
  68.9434237  58.6146405  90.7069091  68.1465400  58.7265100  91.2252586
  68.7159829  58.9533058  89.8409981  74.7739904  65.1391109  98.6551605
  74.8384337  65.6011516  99.4909777  74.0650828  64.5088474  98.7833915
  65.2757194  58.5032317  96.1800605  65.5265233  59.3879327  96.4458181
  65.8116743  58.3236918  95.4075697  89.0989294  61.9345814  92.8475866
  88.3453002  61.3653212  92.6919871  89.2336835  61.9008478  93.7946501
  74.4887922  66.8059216  88.5230586  74.3533597  67.6510752  88.9515433
  75.0297735  67.0078494  87.7596519  70.9755262  52.8850796 105.1844941
  70.5822207  52.3316995 105.8592585  71.7921402  53.1961374 105.5751458
  67.9417319  64.3234654  89.0958511  68.4541840  65.1177904  89.2464075
  68.5940032  63.6260945  89.0292112  69.7512204  67.4400410  91.1781264
  69.9278832  68.3618375  90.9902248  70.5469038  67.1258830  91.6075644
  73.8923223  54.3008675 102.7765197  74.6332936  54.9015828 102.6969660
  74.1241146  53.5586313 102.2183240  69.0364561  59.4865042 101.0543427
  68.9218076  58.5850300 101.3550526  68.1809078  59.7328739 100.7028244
  70.8743520  68.9578584  97.1791606  71.4250945  68.8295648  96.4068600
  70.0354996  69.2573473  96.8286499  74.6710691  65.2229712 101.5235837
  75.2039027  64.4618000 101.2935145  74.1424772  64.9303364 102.2659992
  77.8380386  50.3289778  97.0529479  77.4944655  51.2191420  96.9768590
  78.2059348  50.1391436  96.1899064  65.9066236  62.6523308  89.8718081
  66.7441458  63.0620317  89.6551789  66.0844504  61.7122751  89.8418275
  77.8030668  60.3198389  85.5601914  77.2877292  61.0902994  85.7990302
  77.5307977  59.6463525  86.1834976  75.3877779  55.1648090  90.6187153
  74.5319376  54.7754940  90.4392791  75.8004731  55.2440051  89.7586938
  76.9176926  52.6994433  95.0178712  76.4141722  52.6624568  94.2046518
  77.2107533  53.6087176  95.0775369  73.1619812  52.7833163  94.0244894
  74.0272809  52.5875972  93.6650783  73.2297321  52.5543515  94.9514251
  82.7764942  63.0730744  87.4955088  81.9994385  62.7341903  87.0510250
  83.4556423  63.0783367  86.8210053  77.5916972  58.1925481  87.3861695
  77.2867107  58.5071630  88.2371839  78.5447414  58.2706901  87.4289028
  76.0363403  64.3515705  89.0354649  75.5084765  63.6168464  88.7227887
  75.5350906  65.1290381  88.7894618  81.0156249  62.5464725  94.1521696
  80.3579924  63.2363986  94.2401824  81.8196649  62.9361157  94.4955682
  70.7682131  55.0135371  91.3961261  71.3425883  54.7910552  90.6634454
  71.3553113  55.0824065  92.1489862  79.8261708  60.9009098  92.2025637
  80.3393590  61.5339090  92.7047347  80.4762932  60.3010293  91.8368997
  71.0951718  57.0439832  85.4157146  70.2589030  57.3814518  85.7366421
  70.9556488  56.9088812  84.4784283  73.0704799  51.8876620  90.1236330
  72.4169211  51.5725637  89.4992945  73.0285273  51.2652360  90.8496153
  74.1816004  62.1695915  82.0389622  73.2743065  61.9385168  82.2380771
  74.6787036  61.3733534  82.2263604  77.0884082  70.8793422  84.9586308
  76.4145781  71.1825119  85.5671266  77.4749904  71.6822502  84.6091766
  76.3042539  58.3758553  94.4483978  75.3865100  58.5973500  94.2905666
  76.7202683  58.4504864  93.5895685  77.0877587  59.7749969  89.5786658
  77.8349406  60.2871366  89.2693780  77.3569176  59.4534022  90.4391052
  75.3604237  62.2708510  86.5613612  74.4515456  61.9867542  86.6586082
  75.3899321  62.6907588  85.7016919  80.5923504  65.8815099  90.3304780
  80.1385832  65.0406009  90.3869970  79.9617471  66.5176498  90.6679560
  79.5356424  56.8107085  91.5605447  78.7979181  56.2984471  91.8915690
  79.7883198  56.3707467  90.7488724  79.0356444  67.7191596  91.2654598
  79.3279418  68.2796653  90.5466964  79.5455064  68.0120157  92.0207757
  79.6368051  49.5883337  92.1547217  79.9426928  48.7280701  91.8673132
  80.3620656  50.1800957  91.9546211  65.9292407  59.9914024  90.5428815
  65.7316807  59.3983384  89.8179881  65.3739071  59.6866234  91.2604753
  73.9089131  59.8837130  92.6623408  73.9637741  58.9310967  92.5865884
  73.0980333  60.0396569  93.1464706  75.0580325  63.8117253  83.9001691
  74.6199755  63.0953112  83.4407328  75.7990766  64.0393368  83.3386782
  71.8481491  58.5014190  90.4213787  71.0349356  58.8008361  90.8278979
  72.3440485  58.1069879  91.1388269  73.9990069  68.4971947  92.3548051
  73.9566248  68.7232793  91.4256583  74.9152768  68.2635322  92.5033852
  77.4455703  58.9656014  99.2528681  77.8005090  59.1927488 100.1123146
  78.0927834  59.2974391  98.6305936  83.1753440  62.0874450  89.9578010
  83.0371338  62.2776046  89.0299199  82.8189658  62.8493833  90.4146061
  71.3395566  56.0732546  96.0375022  71.9794945  55.9321305  95.3397985
  70.5073096  55.7867059  95.6613624  83.2022819  64.1550977  94.9689281
  83.6359326  64.0626266  95.8172335  83.9154400  64.1308478  94.3309297
  72.1155870  65.3734976  92.1510014  72.9096468  64.8785296  91.9492589
  71.4047562  64.8452839  91.7877720  76.9350714  67.7553071  96.5022382
  76.9887736  68.3244008  97.2700098  76.0665495  67.9254957  96.1376419
  68.4238633  59.5178058  88.2269767  67.4936221  59.4562513  88.4439729
  68.5196105  58.9954010  87.4306408  68.3424182  56.0432871  90.8148008
  68.6030999  56.9578204  90.7057169  69.1641354  55.5757313  90.9644621
  69.8149107  57.4570628  97.9846833  70.4872161  57.2487990  97.3359482
  68.9878894  57.2592714  97.5452065  84.0638369  64.1974678  97.5022166
  84.2574259  65.1020489  97.7481441  83.9638987  63.7382097  98.3360751
  75.7174679  54.0832569 100.0012494  75.0702595  54.7822518  99.9076970
  76.4875695  54.5168713 100.3688742  75.8938814  61.9213333  98.0609314
  76.8230874  62.0724493  97.8878281  75.4729844  62.0097354  97.2057960
  74.6927146  65.9463998  95.8307851  74.5538231  65.5782782  96.7033789
  73.9041742  66.4611637  95.6591809  75.2875298  71.0473094  87.1733388
  75.4627053  70.5761138  87.9879010  74.6008086  71.6738861  87.4014648
  76.2432361  65.3245601  93.2196689  75.9082193  65.2846371  94.1154339
  75.7436306  64.6590317  92.7467099  70.2176605  60.7313231  98.7449270
  70.0796403  59.9993469  99.3460809  71.1281528  60.6422131  98.4633458
  79.1791552  62.6701635  83.4933749  78.5620723  61.9448463  83.3966801
  78.7108041  63.4310995  83.1500823  72.8458905  60.4433190  98.2332950
  73.5558524  59.8026382  98.1919568  72.8028214  60.6946085  99.1559131
  71.5587839  57.4298408 100.0528589  71.0225196  56.9789146 100.7050186
  70.9704548  57.5644317  99.3099054  69.8536383  74.1962457  93.9473248
  70.0932981  74.8280981  94.6252266  69.0105579  73.8450497  94.2338607
  70.9690098  56.8887059  82.6155053  70.0919565  56.7675860  82.2517300
  71.4447851  56.0973138  82.3633942  80.8363091  65.3440127  99.3853509
  79.9489870  65.0066049  99.5079907  81.4061642  64.6123158  99.6222274
  62.4892238  61.6764219  92.7096560  63.1763278  61.3625949  92.1217575
  62.3340367  62.5805584  92.4363811  67.2926961  56.5654416  97.1381584
  67.2085149  55.9580085  96.4031994  66.4709667  57.0563434  97.1391080
  74.3664245  70.0041580  96.3514752  74.2934416  70.8096551  96.8634056
  73.9241638  70.2033545  95.5262773  74.1554024  69.2413350  89.8617573
  73.3721546  69.7835030  89.9555798  74.8546770  69.7587329  90.2611815
  77.4650674  55.0507979  92.5051779  77.9619374  54.2977941  92.1852849
  76.6937656  55.0872296  91.9394988  85.3180432  60.7548345  94.1470070
  85.3070308  61.6373060  93.7764003  84.4497811  60.4019895  93.9524607
  76.8262928  69.9028414  98.5072910  77.5390900  70.5375878  98.4348812
  76.3352957  69.9992280  97.6912912  78.5480455  63.8079666  90.0790202
  77.6136734  63.9281129  89.9094906  78.7257124  62.9052133  89.8150212
  74.0485643  57.1925362  92.2323463  73.6783431  56.6396402  92.9204369
  74.5444736  56.5883496  91.6798463  81.9353007  59.6496986  90.6140236
  82.4013459  60.4824977  90.5400539  82.3860507  59.1841967  91.3185495
  71.8774842  67.6522857  99.3278481  72.5784301  68.2859340  99.4807876
  71.4069957  67.9937589  98.5674121  80.0029238  65.9940807  87.6126388
  80.2789082  65.8797401  88.5220262  79.1333736  65.5958292  87.5738561
  79.9069669  52.0177573  94.6531138  78.9932749  52.2481799  94.8213345
  80.3362771  52.1016017  95.5045170  79.6776128  60.2067465  97.1531032
  79.0247578  60.4543372  96.4983484  80.0556508  59.3931603  96.8193509
  76.6383302  70.2427158  91.2559202  76.8205696  69.4248814  91.7186954
  77.4616288  70.4594850  90.8184092  76.9725467  69.1695343  88.5174250
  77.5013234  68.6587797  87.9044413  77.2353687  68.8537873  89.3819783
  75.7263701  60.9487276 103.6397069  75.0504338  60.8481405 104.3099444
  76.5491335  60.7926489 104.1033066  67.4742560  67.1859212  96.2609584
  68.0595997  66.4402900  96.3937488  67.2767398  67.4963169  97.1446248
  70.3281215  70.2210460  91.2772026  69.6591590  70.7056587  90.7936066
  70.1894085  70.4679680  92.1915405  62.0660215  59.7564812  94.9814027
  62.1044314  59.2228403  95.7751145  61.5600507  59.2300018  94.3625004
  74.4686484  72.2554203  97.8754685  75.0204792  72.4185825  98.6403770
  74.8092677  72.8458641  97.2034710  69.4450977  54.6029353  98.4776569
  69.5092303  55.4644184  98.0653967  69.3818097  53.9903355  97.7448928
  68.9203249  56.6752485 102.1249604  69.5475288  56.2929563 102.7387128
  68.0631168  56.4566687 102.4905296  65.6968792  58.4828915  88.0567959
  65.9922233  57.5739593  88.0035012  64.7956828  58.4616654  87.7348961
  77.6054871  70.2036179  94.8618367  77.4806010  69.4025918  94.3529312
  78.2633962  70.6982372  94.3732337  69.2263039  56.5584911  94.0395507
  68.5049625  57.1720879  93.9002980  70.0156295  57.0942676  93.9612153
  79.6689779  68.0045199  96.4897917  78.7220115  67.8850550  96.4176244
  80.0172552  67.1167697  96.5724178  72.0289353  53.8939338 100.3136159
  72.5523754  54.1401634 101.0762468  71.8101686  54.7259372  99.8939296
  67.4256634  56.1643012  88.1807284  67.0969340  55.2840391  87.9982390
  67.7796004  56.1090681  89.0683673  76.6736213  67.7997915  92.6902269
  76.5261175  66.8714622  92.8709839  77.4989706  67.8218006  92.2059344
  70.5398457  56.4515982  88.5482761  70.8794529  56.9801903  87.8261370
  70.9870577  56.7896388  89.3241328  80.2770334  68.6226474  93.7767142
  81.2016882  68.4169335  93.6391593  80.1085638  68.3742875  94.6856483
  73.2341898  54.8353033  97.9985829  72.8938718  54.0360846  98.4006509
  72.5280904  55.1354744  97.4262663  73.8858370  51.9202345  96.4513152
  74.7084439  51.4462823  96.3292043  74.1296433  52.6992829  96.9511839
  72.5266604  54.9490604  86.7476054  73.2474967  55.3271856  86.2439771
  71.9031908  55.6679480  86.8511032  76.6697727  55.6535753  87.6834386
  76.8861341  56.5360390  87.3823215  76.1891794  55.2621966  86.9540028
  71.4096948  58.6121466  94.2605131  71.2641529  58.9261769  95.1529413
  70.9322152  59.2306366  93.7076030  73.2693331  55.6024014  94.3086021
  73.2554900  54.7065107  93.9718319  73.9865759  55.6094677  94.9424307
  75.1219462  56.0361354  96.3539148  74.8637240  56.9578425  96.3523478
  74.5904502  55.6391788  97.0439612  80.0665651  69.1412141  89.1329233
  80.2402528  68.5758564  88.3803086  80.5594542  69.9413036  88.9508723
  65.8842610  61.1526810  97.1992792  65.3396079  61.9286618  97.3313067
  66.7621960  61.4997615  97.0411914  72.6730227  54.4838394  89.5773591
  72.7946138  53.5555040  89.7764478  72.3832269  54.4977080  88.6651906
  75.5421418  52.1693304  92.7140311  75.5643114  52.2332638  91.7592290
  75.9589477  51.3297813  92.9080817  85.9205042  61.9048564  90.7519533
  86.3636188  61.1555889  90.3538656  85.0431552  61.8958700  90.3693265
  81.0540823  68.4578905  86.2326132  81.7491728  69.0785598  86.4513446
  81.3963973  67.6074257  86.5078510  66.6708632  60.2796706 100.0922949
  65.9290368  60.4279342 100.6787580  66.3501377  60.5404972  99.2289698
  82.9532246  65.9078611  87.7613462  83.4783570  66.2465884  87.0362782
  82.8654599  64.9725626  87.5776597  74.6152295  69.8212685  99.8903339
  74.9239421  69.5761831 100.7626039  75.4127777  70.0259323  99.4022209
  74.6372907  71.9750594  92.1208716  74.1977897  71.4826973  92.8141572
  75.3881024  71.4323562  91.8800791  67.1165246  68.1662135  92.1233344
  67.9423266  67.8665907  91.7431987  66.7659298  67.3969758  92.5723132
  72.0846779  67.5188603  94.1931017  71.4626788  66.8559308  93.8933245
  72.7551646  67.5449735  93.5104665  65.3173851  66.0848462  93.0822277
  64.4805759  65.6570636  92.9006279  65.2897496  66.2780905  94.0193068
  72.1571307  55.9970391 103.7863523  72.2059462  56.8732514 103.4041293
  72.6993821  55.4547784 103.2135167  82.7624027  63.3903981 100.3797389
  82.8122032  63.2253988 101.3212912  82.6537951  62.5231240  99.9895270
  71.6460286  66.0692527  87.6689478  71.7948406  66.7527991  87.0156151
  72.4526730  66.0497617  88.1838934  80.0527790  59.3734909 101.6956696
  80.9537653  59.2341374 101.4040693  80.1275764  59.5389364 102.6354873
  74.3870595  56.7501764 100.5409882  73.5173905  57.0435330 100.2692471
  74.6230075  57.3342209 101.2617146  85.4637907  63.3753802  93.1441981
  86.2984798  63.8143606  93.3079541  85.5997035  62.8992456  92.3250226
  82.5129412  60.9333537  99.0919468  82.9883534  61.1261183  98.2838320
  81.5894978  60.9892723  98.8462852  69.4012919  62.0957704  88.6750547
  69.1558961  61.1920034  88.8730757  69.5708834  62.0974855  87.7330025
  77.0909629  52.9681381  98.0575302  77.6091573  53.7042408  97.7321791
  76.7364762  53.2745374  98.8922061  68.6708567  57.8286062  86.1736708
  67.9777812  57.9030417  85.5176744  68.4260319  57.0646406  86.6958225
  77.3422223  49.3881663  93.5776199  77.6223977  48.7204852  94.2036626
  78.1272830  49.5810759  93.0650863  75.1455692  68.5640657  85.1401225
  74.5729659  69.1830844  84.6871697  75.7188485  69.1140019  85.6741147
  81.2131081  57.8099297  97.3247774  82.1648504  57.9097395  97.3459998
  81.0434532  57.0177566  97.8345858  79.2345461  54.8954880  97.5107175
  78.6395393  55.1759893  96.8153664  78.9495158  55.3848781  98.2823916
  78.3652951  68.8477807  86.2709808  79.2983625  68.7823369  86.4742683
  78.2776164  69.6834074  85.8124340  80.9940968  68.1643678  83.2313755
  80.9154600  67.8303541  84.1249513  81.8150635  68.6565446  83.2305227
  83.6919159  61.0305417  96.4390074  83.6595479  60.0921418  96.6249758
  84.3019783  61.1089454  95.7055899  75.5302490  59.9001470  82.4817278
  76.4761595  59.7707678  82.5505696  75.1516735  59.1616132  82.9586706
  83.8413648  57.8216460  96.4848357  83.3252696  57.0374917  96.2978286
  84.7253596  57.4935177  96.6494876  81.5024375  51.5657476  92.4444170
  81.3049196  51.2572564  93.3287502  82.1124080  52.2919115  92.5742099
  89.5095709  62.0921424  95.5796111  90.2399098  61.8306712  96.1403814
  88.9002655  61.3550146  95.6198178  87.5911006  60.2329286  96.1770562
  86.8644170  60.0985251  95.5687053  87.1758293  60.5406115  96.9827280
  73.7145407  57.8251446  82.4172163  72.8076863  57.5284559  82.4934877
  73.9921388  57.5281264  81.5506449  64.6323348  59.1457810  92.8671209
  64.3126132  58.2923118  92.5745583  64.0856776  59.3606388  93.6229177
  68.4103255  61.8620251  96.5840716  68.6289265  62.7937359  96.6028750
  68.8229029  61.5028225  97.3695520  75.3307473  52.3688336  88.5716404
  74.5208201  52.0235421  88.9471650  76.0191890  52.0595880  89.1604016
  77.2598021  51.4466383  90.1940701  77.8129060  51.8661836  90.8530724
  77.4968108  50.5202131  90.2363657  73.2831121  57.4353456 105.9743465
  73.1827847  58.3847813 105.9055556  73.0652663  57.1071695 105.1019535
  72.4844192  54.6838382  82.5584142  73.3463356  55.0093280  82.8179960
  72.6694536  53.8969877  82.0457208  64.5011608  62.7660721  94.8364331
  63.8075079  62.3514674  94.3234285  65.2484599  62.8081258  94.2397750
  80.6376828  53.5566908  89.7019365  80.0575497  54.2151712  89.3197418
  80.3712761  52.7344253  89.2906783  79.0880395  52.9571966  91.9040686
  79.5880173  53.0688500  91.0955004  79.7316003  52.6533019  92.5441494
  73.1462391  60.8650595 104.7908526  72.6629472  61.6650955 104.9972416
  73.2323330  60.8758540 103.8375970  66.4148350  62.6978975  92.7130346
  66.3919038  62.7966662  91.7612229  66.7248987  63.5444126  93.0347512
  69.0735728  64.7555130  96.8276960  70.0278982  64.7239072  96.7606892
  68.8748252  64.2945754  97.6427186  69.6635110  63.3256246  99.3947758
  70.4827999  63.8200325  99.4182595  69.9371918  62.4088214  99.3665325
  79.4201706  55.7166998  88.7575713  78.5327561  56.0016649  88.5395908
  79.8355695  55.5560762  87.9102990  82.7716243  55.7413519  92.4730053
  83.5476633  56.2309972  92.7454670  82.0464377  56.1671574  92.9301922
  85.2088801  56.4541139  93.5303993  85.8033292  56.2136875  92.8197302
  85.2815385  55.7348269  94.1577530  67.4285957  70.2974749  93.8447158
  67.2940425  69.5375150  93.2785156  67.0118019  71.0215649  93.3775947
  78.5644920  65.4811673  82.8523733  79.2680770  65.6861676  83.4681389
  77.8407569  66.0488435  83.1172817  79.3942730  61.2321534  88.9726004
  79.3377932  61.6890086  88.1333636  79.9471073  60.4712219  88.7948846
  83.2047536  57.0211266  89.7976123  82.9484470  56.6207902  90.6284331
  82.5800404  57.7355060  89.6726262  87.5159874  59.7607339  92.3047415
  86.9559432  59.8300529  93.0778977  86.9103377  59.5848324  91.5846911
  70.5855083  71.1944067  94.0565601  70.4687467  72.1389499  93.9544291
  69.7647529  70.8917628  94.4451400  80.4731617  65.9194202  84.9022193
  81.3077221  65.4875401  84.7199668  80.3115960  65.7476216  85.8299088
  80.1277509  62.4226316  86.2678533  80.0726313  62.2570587  85.3266977
  79.5023565  63.1302348  86.4240723  64.9170024  57.6594380 100.0939955
  65.5628888  57.1493334 100.5827180  64.7087176  58.3963062 100.6683380
  73.4373635  51.9234425  85.8463851  73.4252305  52.8676264  86.0032122
  74.3297057  51.7404570  85.5523312  71.6109597  71.8472328  97.2721529
  72.5136844  71.8795939  97.5888024  71.3846967  70.9172779  97.2867865
  73.3663199  70.6003315  93.9331608  72.4158830  70.6005177  93.8195980
  73.6695685  69.8536050  93.4167642  77.2525754  48.5177201  90.1009788
  76.4858150  47.9635688  90.2466470  77.6636459  48.5899070  90.9623940
  69.2567515  54.8061997 104.1914969  70.1198977  54.4498802 104.4018294
  68.6832926  54.4675892 104.8790374  81.7692414  78.2426758  90.9235786
  81.2057279  78.1516695  90.1552074  81.6544809  77.4226662  91.4038278
  87.3491973  81.9097726  86.2350251  86.6979953  82.4951806  85.8484265
  88.1436336  82.4403920  86.2945288  81.2747600  78.9986863  86.6337385
  82.0478476  78.4515850  86.4950261  81.6272999  79.8631112  86.8451847
  83.6113878  75.1579529  84.2655835  83.8639399  74.6361050  83.5039298
  82.6738437  74.9945674  84.3682519  88.8267238  79.5988157  86.7719235
  88.1913071  79.6722784  87.4840140  88.4964645  80.1881756  86.0938314
  83.3310167  77.0607635  86.4680210  83.2146425  76.3852538  87.1361294
  83.4412427  76.5740009  85.6512363  85.6741708  76.5217782  90.1726899
  85.3099915  75.9948403  90.8839821  86.5308824  76.1316251  89.9993385
  85.3147195  71.5507682  85.1688248  85.4821597  72.4187918  85.5358719
  85.1244364  71.7134963  84.2449537  81.5235009  76.4638457  92.8690783
  80.5985506  76.3314671  93.0768474  81.7719423  77.2432677  93.3660725
  85.2936416  74.0065339  86.1534915  85.1736041  74.4522390  86.9920395
  84.5989004  74.3550657  85.5948453  78.8843820  76.1071731  93.7034572
  79.0136202  76.3606210  94.6173983  78.2041272  76.6999439  93.3839227
  90.9921482  74.4786812  86.9815249  91.9039338  74.7114199  86.8062946
  90.4831129  75.0623856  86.4190327  84.0887912  75.3210191  88.4468480
  84.7911955  75.7731235  88.9142407  83.7568540  74.6794010  89.0748373
  77.8313246  73.5793744  93.7485614  77.0412300  73.8351272  93.2725725
  78.3224493  74.3942082  93.8537654  79.7827991  73.9438323  90.7069091
  78.9859155  74.0557017  91.2252586  79.5553583  74.2824975  89.8409981
  76.1150949  73.8324234  96.1800605  76.3658987  74.7171244  96.4458181
  76.6510497  73.6528836  95.4075697  85.3281677  82.1351134  88.5230586
  85.1927351  82.9802670  88.9515433  85.8691489  82.3370411  87.7596519
  78.7811074  79.6526572  89.0958511  79.2935595  80.4469822  89.2464075
  79.4333787  78.9552862  89.0292112  88.6774140  65.6581696  97.0529479
  88.3338410  66.5483337  96.9768590  89.0453103  65.4683353  96.1899064
  76.7459991  77.9815226  89.8718081  77.5835213  78.3912234  89.6551789
  76.9238258  77.0414668  89.8418275  88.6424423  75.6490307  85.5601914
  88.1271046  76.4194911  85.7990302  88.3701731  74.9755443  86.1834976
  86.2271534  70.4940008  90.6187153  85.3713130  70.1046858  90.4392791
  86.6398486  70.5731968  89.7586938  87.7570681  68.0286351  95.0178712
  87.2535476  67.9916486  94.2046518  88.0501287  68.9379094  95.0775369
  84.0013566  68.1125081  94.0244894  84.8666563  67.9167889  93.6650783
  84.0691075  67.8835432  94.9514251  93.6158697  78.4022661  87.4955088
  92.8388140  78.0633821  87.0510250  94.2950178  78.4075285  86.8210053
  88.4310726  73.5217399  87.3861695  88.1260862  73.8363548  88.2371839
  89.3841168  73.5998819  87.4289028  86.8757158  79.6807622  89.0354649
  86.3478519  78.9460382  88.7227887  86.3744661  80.4582299  88.7894618
  81.6075885  70.3427288  91.3961261  82.1819637  70.1202470  90.6634454
  82.1946868  70.4115983  92.1489862  81.9345473  72.3731749  85.4157146
  81.0982785  72.7106436  85.7366421  81.7950242  72.2380729  84.4784283
  83.9098553  67.2168537  90.1236330  83.2562966  66.9017555  89.4992945
  83.8679027  66.5944278  90.8496153  85.0209758  77.4987832  82.0389622
  84.1136820  77.2677086  82.2380771  85.5180790  76.7025452  82.2263604
  87.9277837  86.2085340  84.9586308  87.2539536  86.5117036  85.5671266
  88.3143659  87.0114420  84.6091766  87.9271341  75.1041887  89.5786658
  88.6743160  75.6163284  89.2693780  88.1962931  74.7825939  90.4391052
  86.1997991  77.6000427  86.5613612  85.2909211  77.3159460  86.6586082
  86.2293075  78.0199506  85.7016919  90.3750178  72.1399003  91.5605447
  89.6372935  71.6276389  91.8915690  90.6276952  71.6999384  90.7488724
  90.4761806  64.9175255  92.1547217  90.7820683  64.0572618  91.8673132
  91.2014411  65.5092875  91.9546211  76.7686162  75.3205941  90.5428815
  76.5710562  74.7275302  89.8179881  76.2132826  75.0158152  91.2604753
  84.7482886  75.2129048  92.6623408  84.8031495  74.2602884  92.5865884
  83.9374088  75.3688487  93.1464706  85.8974079  79.1409171  83.9001691
  85.4593509  78.4245030  83.4407328  86.6384520  79.3685286  83.3386782
  82.6875245  73.8306108  90.4213787  81.8743111  74.1300278  90.8278979
  83.1834240  73.4361796  91.1388269  82.1789320  71.4024463  96.0375022
  82.8188700  71.2613222  95.3397985  81.3466851  71.1158977  95.6613624
  79.2632388  74.8469975  88.2269767  78.3329976  74.7854431  88.4439729
  79.3589860  74.3245928  87.4306408  79.1817937  71.3724788  90.8148008
  79.4424754  72.2870121  90.7057169  80.0035109  70.9049231  90.9644621
  90.0185307  77.9993553  83.4933749  89.4014478  77.2740381  83.3966801
  89.5501795  78.7602913  83.1500823  81.8083853  72.2178977  82.6155053
  80.9313319  72.0967778  82.2517300  82.2841606  71.4265055  82.3633942
  73.3285993  77.0056137  92.7096560  74.0157033  76.6917867  92.1217575
  73.1734122  77.9097501  92.4363811  78.1320715  71.8946333  97.1381584
  78.0478904  71.2872003  96.4031994  77.3103421  72.3855352  97.1391080
  88.3044429  70.3799897  92.5051779  88.8013128  69.6269859  92.1852849
  87.5331410  70.4164213  91.9394988  84.8879398  72.5217280  92.2323463
  84.5177185  71.9688320  92.9204369  85.3838490  71.9175413  91.6798463
  90.7463424  67.3469490  94.6531138  89.8326504  67.5773717  94.8213345
  91.1756525  67.4307934  95.5045170  72.9053969  75.0856730  94.9814027
  72.9438069  74.5520321  95.7751145  72.3994262  74.5591936  94.3625004
  80.2844731  69.9321271  98.4776569  80.3486058  70.7936101  98.0653967
  80.2211852  69.3195272  97.7448928  76.5362547  73.8120832  88.0567959
  76.8315988  72.9031511  88.0035012  75.6350582  73.7908572  87.7348961
  80.0656794  71.8876829  94.0395507  79.3443379  72.5012796  93.9002980
  80.8550049  72.4234594  93.9612153  78.2650388  71.4934930  88.1807284
  77.9363094  70.6132309  87.9982390  78.6189759  71.4382599  89.0683673
  81.3792211  71.7807900  88.5482761  81.7188284  72.3093821  87.8261370
  81.8264332  72.1188306  89.3241328  84.7252124  67.2494263  96.4513152
  85.5478193  66.7754741  96.3292043  84.9690188  68.0284747  96.9511839
  83.3660359  70.2782521  86.7476054  84.0868721  70.6563774  86.2439771
  82.7425663  70.9971398  86.8511032  87.5091481  70.9827670  87.6834386
  87.7255096  71.8652308  87.3823215  87.0285549  70.5913884  86.9540028
  82.2490703  73.9413383  94.2605131  82.1035284  74.2553686  95.1529413
  81.7715906  74.5598284  93.7076030  84.1087086  70.9315931  94.3086021
  84.0948654  70.0357025  93.9718319  84.8259514  70.9386595  94.9424307
  83.5123982  69.8130312  89.5773591  83.6339893  68.8846958  89.7764478
  83.2226024  69.8268998  88.6651906  86.3815172  67.4985222  92.7140311
  86.4036869  67.5624555  91.7592290  86.7983231  66.6589731  92.9080817
  82.4854041  81.3984444  87.6689478  82.6342161  82.0819909  87.0156151
  83.2920484  81.3789534  88.1838934  80.2406674  77.4249622  88.6750547
  79.9952715  76.5211952  88.8730757  80.4102588  77.4266772  87.7330025
  79.5102321  73.1577980  86.1736708  78.8171566  73.2322335  85.5176744
  79.2654073  72.3938323  86.6958225  88.1815978  64.7173581  93.5776199
  88.4617731  64.0496770  94.2036626  88.9666585  64.9102677  93.0650863
  85.9849446  83.8932575  85.1401225  85.4123413  84.5122762  84.6871697
  86.5582240  84.4431937  85.6741147  91.8334723  83.4935595  83.2313755
  91.7548354  83.1595459  84.1249513  92.6544389  83.9857363  83.2305227
  86.3696245  75.2293388  82.4817278  87.3155349  75.0999596  82.5505696
  85.9910490  74.4908049  82.9586706  92.3418129  66.8949394  92.4444170
  92.1442950  66.5864482  93.3287502  92.9517835  67.6211033  92.5742099
  84.5539162  73.1543364  82.4172163  83.6470617  72.8576477  82.4934877
  84.8315143  72.8573182  81.5506449  75.4717102  74.4749727  92.8671209
  75.1519886  73.6215036  92.5745583  74.9250530  74.6898306  93.6229177
  86.1701227  67.6980254  88.5716404  85.3601956  67.3527339  88.9471650
  86.8585644  67.3887797  89.1604016  88.0991776  66.7758300  90.1940701
  88.6522814  67.1953754  90.8530724  88.3361862  65.8494049  90.2363657
  83.3237946  70.0130299  82.5584142  84.1857110  70.3385197  82.8179960
  83.5088291  69.2261795  82.0457208  75.3405362  78.0952639  94.8364331
  74.6468834  77.6806592  94.3234285  76.0878353  78.1373175  94.2397750
  91.4770583  68.8858826  89.7019365  90.8969252  69.5443630  89.3197418
  91.2106516  68.0636170  89.2906783  89.9274149  68.2863883  91.9040686
  90.4273928  68.3980418  91.0955004  90.5709757  67.9824936  92.5441494
  77.2542105  78.0270893  92.7130346  77.2312793  78.1258580  91.7612229
  77.5642741  78.8736043  93.0347512  90.2595461  71.0458916  88.7575713
  89.3721316  71.3308567  88.5395908  90.6749450  70.8852679  87.9102990
  89.4038674  80.8103591  82.8523733  90.1074524  81.0153593  83.4681389
  88.6801323  81.3780353  83.1172817  90.2336485  76.5613452  88.9726004
  90.1771686  77.0182003  88.1333636  90.7864827  75.8004137  88.7948846
  94.0441291  72.3503184  89.7976123  93.7878225  71.9499819  90.6284331
  93.4194159  73.0646978  89.6726262  91.3125372  81.2486120  84.9022193
  92.1470976  80.8167318  84.7199668  91.1509715  81.0768134  85.8299088
  90.9671264  77.7518233  86.2678533  90.9120068  77.5862505  85.3266977
  90.3417319  78.4594266  86.4240723  84.2767389  67.2526342  85.8463851
  84.2646059  68.1968182  86.0032122  85.1690811  67.0696488  85.5523312
  88.0919509  63.8469119  90.1009788  87.3251905  63.2927606  90.2466470
  88.5030214  63.9190988  90.9623940  92.6477607  87.5470895  82.6155053
  91.7707074  87.4259695  82.2517300  93.1235360  86.7556973  82.3633942
  94.1631701  85.3422217  82.5584142  95.0250865  85.6677115  82.8179960
  94.3482045  84.5553713  82.0457208  43.9916956  -2.4007823  72.9595557
  43.3404936  -1.8153742  72.5729571  44.7861319  -1.8701628  73.0190595
  37.9172583  -5.3118685  73.3582692  38.6903459  -5.8589698  73.2195568
  38.2697982  -4.4474436  73.5697153  45.4692221  -4.7117391  73.4964542
  44.8338054  -4.6382764  74.2085446  45.1389628  -4.1223792  72.8183621
  39.6968291   2.4663433  76.5270352  39.6192321   3.4171258  76.6058833
  39.0929935   2.1209305  77.1845279  46.2416047  -4.8492917  81.0974137
  45.6124910  -4.6847203  80.3950205  45.8541709  -4.4351308  81.8685101
  50.1205279  -3.9138480  78.4518500  49.4356317  -3.5339578  77.9015534
  50.2049129  -3.3043153  79.1850448  41.7944009  -5.1118509  78.3624222
  42.2582355  -4.8330806  77.5728844  41.5300807  -6.0135065  78.1797313
  41.9706660  -2.1754414  75.2475892  41.8352335  -1.3302879  75.6760740
  42.5116472  -1.9735137  74.4841826  35.4236057  -4.6578976  75.8203817
  35.9360578  -3.8635726  75.9709382  36.0758770  -5.3552686  75.7537419
  37.2330942  -1.5413220  77.9026570  37.4097570  -0.6195255  77.7147554
  38.0287775  -1.8554801  78.3320950  43.5182141  -4.6297926  75.7599956
  42.9903503  -5.3645166  75.4473193  43.0169644  -3.8523250  75.5139924
  44.5702820   1.8979792  71.6831615  43.8964519   2.2011488  72.2916573
  44.9568642   2.7008872  71.3337072  48.0742242  -3.0998531  77.0550087
  47.6204569  -3.9407621  77.1115277  47.4436209  -2.4637133  77.3924867
  46.5175181  -1.2622035  77.9899905  46.8098156  -0.7016977  77.2712270
  47.0273802  -0.9693474  78.7453064  42.5399063  -5.1696377  70.6246998
  42.1018493  -5.8860518  70.1652635  43.2809503  -4.9420262  70.0632089
  41.4808807  -0.4841684  79.0793358  41.4384985  -0.2580837  78.1501890
  42.3971505  -0.7178309  79.2279159  39.5974607  -3.6078655  78.8755321
  40.3915206  -4.1028334  78.6737896  38.8866300  -4.1360791  78.5123026
  42.7694035   2.0659464  73.8978694  42.9445791   1.5947507  74.7124317
  42.0826823   2.6925230  74.1259955  43.7251099  -3.6568030  79.9441996
  43.3900931  -3.6967260  80.8399645  43.2255044  -4.3223314  79.4712406
  37.3355121   5.2148827  80.6718554  37.5751719   5.8467351  81.3497573
  36.4924317   4.8636867  80.9583914  41.8482983   1.0227949  83.0760058
  41.7753154   1.8282921  83.5879363  41.4060376   1.2219915  82.2508080
  41.6372762   0.2599719  76.5862880  40.8540284   0.8021399  76.6801105
  42.3365507   0.7773699  76.9857121  47.4847975  -2.9872824  74.3371695
  47.7607819  -3.1016229  75.2465569  46.6152474  -3.3855339  74.2983868
  44.1202039   1.2613527  77.9804509  44.3024434   0.4435183  78.4432261
  44.9435025   1.4781220  77.5429399  44.4544205   0.1881712  75.2419557
  44.9831971  -0.3225833  74.6289719  44.7172425  -0.1275757  76.1065090
  37.8099953   1.2396829  78.0017333  37.1410328   1.7242957  77.5181373
  37.6712823   1.4866050  78.9160712  41.9505221   3.2740573  84.5999991
  42.5023529   3.4372194  85.3649077  42.2911415   3.8645010  83.9280016
  45.0873609   1.2222548  81.5863674  44.9624748   0.4212288  81.0774619
  45.7452700   1.7168742  81.0977643  47.1508517  -0.9768432  83.2143224
  46.2038853  -1.0963081  83.1421550  47.4991290  -1.8645934  83.2969485
  44.1554950  -1.1815716  79.4147576  44.0079913  -2.1099008  79.5955146
  44.9808444  -1.1595625  78.9304651  47.7589072  -0.3587157  80.5012449
  48.6835620  -0.5644295  80.3636900  47.5904376  -0.6070756  81.4101790
  47.5484388   0.1598511  75.8574540  47.7221266  -0.4055067  75.1048393
  48.0413280   0.9599406  75.6754030  48.5359561  -0.5234725  72.9571438
  49.2310466   0.0971968  73.1758753  48.8782711  -1.3739374  73.2323816
  50.4350984  -3.0735019  74.4858769  50.9602308  -2.7347747  73.7608089
  50.3473337  -4.0088004  74.3021904  42.1191645   2.9936964  78.8454022
  41.6796635   2.5013343  79.5386879  42.8699762   2.4509932  78.6046098
  39.5665517  -1.4625027  80.9176324  38.9445526  -2.1254322  80.6178552
  40.2370384  -1.4363895  80.2349972  39.1279024  -2.9121104  74.3934785
  39.2767144  -2.2285639  73.7401457  39.9345467  -2.9316014  74.9084240
  36.8831657  -6.8855926  75.3995853  36.6377699  -7.7893596  75.5976064
  37.0527571  -6.8838776  74.4575331  42.6274429  -0.4172973  71.8646532
  42.0548396   0.2017214  71.4117004  43.2007223   0.1326388  72.3986454
  45.8471689  -0.1335823  72.9955114  46.7802362  -0.1990261  73.1987990
  45.7594902   0.7020444  72.5369647  48.4759706  -0.8169953  69.9559062
  48.3973337  -1.1510089  70.8494820  49.2969373  -0.3248185  69.9550534
  34.9104695   1.3161119  80.5692465  34.7759163   0.5561520  80.0030463
  34.4936757   2.0402019  80.1021254  46.0463658  -3.5001957  69.5769040
  46.7499508  -3.2951955  70.1926696  45.3226306  -2.9325196  69.8418124
  38.0673820   2.2130436  80.7810907  37.9506205   3.1575869  80.6789598
  37.2466267   1.9103998  81.1696707  47.9550355  -3.0619428  71.6267500
  48.7895959  -3.4938230  71.4444975  47.7934698  -3.2337415  72.5544395
  40.8481937   1.6189685  80.6576914  39.8977568   1.6191546  80.5441287
  41.1514423   0.8722419  80.1412949  56.5834630   7.4550223  81.7222677
  57.2213040   7.3356970  81.0186017  56.4655473   8.4031067  81.7810629
  53.3924336   7.4077651  81.6584202  53.0542848   7.2918716  80.7704736
  54.2614105   7.0068816  81.6385208  49.2511152   9.2613127  77.6481093
  48.6876017   9.1703064  76.8797380  49.1363547   8.4413032  78.1283585
  53.8744119   8.5612503  87.6170407  53.8632760   8.1665301  86.7450911
  54.0364759   7.8278575  88.2104179  46.7975584  10.7564319  80.4865313
  47.5896876  10.4155144  80.0711612  47.0372234  10.8659294  81.4067466
  54.8310711  12.9284095  72.9595557  54.1798691  13.5138176  72.5729571
  55.6255074  13.4590290  73.0190595  48.7566338  10.0173232  73.3582692
  49.5297214   9.4702219  73.2195568  49.1091737  10.8817482  73.5697153
  50.5951381  11.3449615  86.5649591  50.3041247  12.2495245  86.4496257
  51.2308365  11.3866142  87.2793661  51.5207587   8.7226463  83.1550951
  52.1171160   8.4982485  82.4407914  51.5782559   7.9811209  83.7576399
  51.0932616   6.1765898  70.9901142  51.3458136   5.6547420  70.2284605
  50.1557175   6.0132044  71.0927825  56.1375899   5.1801677  78.7975885
  56.9238988   4.7621100  78.4466302  56.4014603   6.0847769  78.9657533
  56.3085976  10.6174527  73.4964542  55.6731809  10.6909154  74.2085446
  55.9783382  11.2068126  72.8183621  61.5384326   5.1176910  79.7008863
  62.2709498   4.5476127  79.9346693  60.7823681   4.7298510  80.1415369
  50.8128905   8.0794004  73.1925517  50.6965163   7.4038908  73.8606601
  50.9231164   7.5926378  72.3757670  53.1560445   7.5404151  76.8972206
  52.7918653   7.0134772  77.6085127  54.0127561   7.1502621  76.7238691
  52.7965932   2.5694051  71.8933554  52.9640335   3.4374288  72.2604025
  52.6063102   2.7321333  70.9694844  55.5541266  11.0311030  83.5599385
  55.2541989  11.9336069  83.4515192  55.2092325  10.7643213  84.4120538
  49.0053747   7.4824827  79.5936089  48.0804244   7.3501041  79.8013781
  49.2538160   8.2619046  80.0906032  58.9538409   3.5493570  81.2396822
  58.0455287   3.4808979  80.9455583  58.9026005   4.0265515  82.0678648
  52.7755153   5.0251709  72.8780221  52.6554779   5.4708759  73.7165702
  52.0807742   5.3737026  72.3193759  46.3662558   7.1258100  80.4279878
  46.4954939   7.3792579  81.3419290  45.6860009   7.7185808  80.1084533
  50.5362045  17.7955350  76.5270352  50.4586075  18.7463175  76.6058833
  49.9323689  17.4501223  77.1845279  53.0279275   4.9683216  89.1831719
  52.2512609   5.5277136  89.1734584  53.6669838   5.4539999  89.7046589
  60.8200056   1.7510009  83.0174696  60.1774436   2.0442542  82.3714491
  60.3154984   1.6362929  83.8227893  58.4740219   5.4973182  73.7060555
  59.3858076   5.7300569  73.5308253  57.9649867   6.0810226  73.1435634
  51.2825648   7.7768669  88.7449686  52.0240332   8.3153713  88.4684510
  50.5762633   8.4034958  88.9021238  56.7580987   9.9197810  87.3421848
  57.1664343   9.4780220  86.5976480  56.0358249   9.3450437  87.5956041
  53.1112057   4.8570416  84.7155405  53.9573252   5.2809830  84.8590054
  53.0510695   4.2004041  85.4093968  57.0809802  10.4799000  81.0974137
  56.4518664  10.6444714  80.3950205  56.6935464  10.8940610  81.8685101
  60.9599034  11.4153438  78.4518500  60.2750072  11.7952339  77.9015534
  61.0442883  12.0248765  79.1850448  56.2611503   2.5174785  86.3736578
  56.0172434   3.2716845  85.8370854  56.5371433   2.8960132  87.2083826
  58.2149965   9.0613397  85.0513844  58.4266861   9.7045157  84.3748225
  58.1679714   8.2275714  84.5835774  55.8176194   1.6731218  81.9550416
  54.9560673   1.9712471  82.2467154  55.8438629   1.8901617  81.0231449
  52.6337764  10.2173408  78.3624222  53.0976109  10.4961111  77.5728844
  52.3694562   9.3156853  78.1797313  49.5261845   9.7644890  81.3003985
  50.0963202  10.1932158  80.6621470  50.1169957   9.4827475  81.9988171
  51.5706650   6.3396561  75.1713787  52.2730693   6.7917604  75.6387713
  51.2387278   5.6980380  75.7993680  45.3131984   4.5980113  80.4730921
  44.5231038   4.8537642  79.9971031  45.8043231   5.4128451  80.5782961
  59.3295793  11.9385353  83.2236201  60.1513237  11.5365540  82.9418883
  59.3258196  11.8353587  84.1752317  47.2646729   4.9624693  77.4314397
  46.4677892   5.0743387  77.9497893  47.0372321   5.3011345  76.5655288
  53.0952397  11.4869396  85.3796912  53.1596829  11.9489803  86.2155084
  52.3863321  10.8566761  85.5079222  43.5969687   4.8510604  82.9045911
  43.8477725   5.7357614  83.1703487  44.1329235   4.6715205  82.1321003
  67.4201786   8.2824101  79.5721173  66.6665495   7.7131499  79.4165177
  67.5549328   8.2486766  80.5191808  52.8100414  13.1537503  75.2475892
  52.6746089  13.9989039  75.6760740  53.3510227  13.3556781  74.4841826
  46.2629812  10.6712941  75.8203817  46.7754332  11.4656192  75.9709382
  46.9152525   9.9739232  75.7537419  48.0724696  13.7878698  77.9026570
  48.2491325  14.7096662  77.7147554  48.8681530  13.4737117  78.3320950
  47.3577053   5.8343330  87.7788734  47.2430568   4.9328587  88.0795833
  46.5021571   6.0807026  87.4273550  54.4368891  13.7761070  89.3776234
  53.9932745  12.9897448  89.0597139  55.0986104  13.9640220  88.7120125
  49.1956012  15.3056871  83.9036913  49.7463437  15.1773935  83.1313907
  48.3567488  15.6051760  83.5531806  56.5350129  14.0563870  87.4057636
  56.5168604  14.8772751  86.9137905  57.4570049  13.9317945  87.6307777
  52.9923183  11.5707999  88.2481144  53.5251520  10.8096287  88.0180452
  52.4637264  11.2781651  88.9905298  44.2278729   9.0001596  76.5963388
  45.0653951   9.4098604  76.3797096  44.4056996   8.0601038  76.5663582
  56.1243161   6.6676676  72.2847221  55.6089784   7.4381281  72.5235608
  55.8520469   5.9941812  72.9080282  53.7090272   1.5126377  77.3432459
  52.8531868   1.1233228  77.1638098  54.1217223   1.5918338  76.4832245
  55.2389418  -0.9527280  81.7424019  54.7354214  -0.9897144  80.9291824
  55.5320025  -0.0434537  81.8020676  51.4832304  -0.8688550  80.7490201
  52.3485301  -1.0645741  80.3896090  51.5509813  -1.0978198  81.6759557
  61.0977435   9.4209031  74.2200394  60.3206878   9.0820190  73.7755556
  61.7768916   9.4261654  73.5455359  55.9129464   4.5403768  74.1107002
  55.6079599   4.8549918  74.9617145  56.8659906   4.6185188  74.1534335
  54.3575896  10.6993992  75.7599956  53.8297257   9.9646751  75.4473193
  53.8563398  11.4768668  75.5139924  59.3368742   8.8943012  80.8767002
  58.6792416   9.5842274  80.9647131  60.1409141   9.2839444  81.2200989
  49.0894623   1.3613658  78.1206567  49.6638375   1.1388840  77.3879760
  49.6765606   1.4302353  78.8735169  58.1474200   7.2487385  78.9270944
  58.6606082   7.8817377  79.4292654  58.7975424   6.6488580  78.5614304
  49.4164210   3.3918119  72.1402453  48.5801523   3.7292806  72.4611727
  49.2768980   3.2567099  71.2029590  51.3917291  -1.7645093  76.8481637
  50.7381703  -2.0796076  76.2238252  51.3497765  -2.3869353  77.5741460
  52.5028496   8.5174202  68.7634929  51.5955558   8.2863455  68.9626078
  52.9999528   7.7211821  68.9508911  55.4096575  17.2271709  71.6831615
  54.7358273  17.5303406  72.2916573  55.7962397  18.0300790  71.3337072
  54.6255031   4.7236840  81.1729285  53.7077593   4.9451787  81.0150973
  55.0415175   4.7983151  80.3140992  55.4090079   6.1228256  76.3031965
  56.1561898   6.6349653  75.9939087  55.6781669   5.8012309  77.1636358
  53.6816729   8.6186797  73.2858919  52.7727949   8.3345830  73.3831389
  53.7111813   9.0385875  72.4262226  58.9135997  12.2293386  77.0550087
  58.4598324  11.3884296  77.1115277  58.2829963  12.8654785  77.3924867
  57.8568916   3.1585372  78.2850754  57.1191673   2.6462759  78.6160997
  58.1095690   2.7185754  77.4734031  57.3568936  14.0669883  77.9899905
  57.6491910  14.6274940  77.2712270  57.8667557  14.3598444  78.7453064
  44.2504900   6.3392311  77.2674121  44.0529299   5.7461672  76.5425188
  43.6951564   6.0344521  77.9850060  52.2301623   6.2315417  79.3868714
  52.2850233   5.2789254  79.3111191  51.4192825   6.3874857  79.8710013
  53.3792817  10.1595541  70.6246998  52.9412247   9.4431399  70.1652635
  54.1203258  10.3871655  70.0632089  50.1693983   4.8492477  77.1459093
  49.3561849   5.1486648  77.5524285  50.6652977   4.4548166  77.8633576
  52.3202561  14.8450234  79.0793358  52.2778740  15.0711080  78.1501890
  53.2365260  14.6113609  79.2279159  55.7668195   5.3134302  85.9773987
  56.1217583   5.5405775  86.8368453  56.4140326   5.6452678  85.3551242
  61.4965932   8.4352738  76.6823316  61.3583830   8.6254334  75.7544505
  61.1402151   9.1972120  77.1391367  49.6608058   2.4210833  82.7620328
  50.3007437   2.2799592  82.0643292  48.8285589   2.1345346  82.3858930
  61.5235311  10.5029265  81.6934588  61.9571818  10.4104554  82.5417642
  62.2366892  10.4786765  81.0554604  50.4368362  11.7213263  78.8755321
  51.2308960  11.2263583  78.6737896  49.7260054  11.1931126  78.5123026
  55.2563206  14.1031359  83.2267688  55.3100229  14.6722295  83.9945404
  54.3877988  14.2733244  82.8621725  46.7451125   5.8656345  74.9515073
  45.8148713   5.8040800  75.1685036  46.8408597   5.3432298  74.1551715
  46.6636674   2.3911158  77.5393315  46.9243492   3.3056491  77.4302475
  47.4853847   1.9235600  77.6889928  48.1361600   3.8048915  84.7092140
  48.8084653   3.5966277  84.0604788  47.3091386   3.6071001  84.2697372
  62.3850861  10.5452965  84.2267473  62.5786751  11.4498776  84.4726748
  62.2851479  10.0860384  85.0606058  54.0387172   0.4310856  86.7257800
  53.3915087   1.1300805  86.6322277  54.8088187   0.8647000  87.0934049
  57.4465970  10.6959708  89.8008354  57.2951476  10.4670260  88.8838437
  57.4370649  11.6530309  89.8139699  54.2151306   8.2691621  84.7854620
  55.1443366   8.4202780  84.6123587  53.7942336   8.3575642  83.9303267
  53.0139638  12.2942285  82.5553158  52.8750724  11.9261070  83.4279096
  52.2254234  12.8089925  82.3837116  53.6087790  17.3951382  73.8978694
  53.7839546  16.9239425  74.7124317  52.9220578  18.0217148  74.1259955
  54.5644853  11.6723888  79.9441996  54.2294686  11.6324658  80.8399645
  54.0648799  11.0068604  79.4712406  48.5389097   7.0791518  85.4694577
  48.4008895   6.3471757  86.0706116  49.4494020   6.9900418  85.1878764
  57.5004045   9.0179922  70.2179055  56.8833215   8.2926750  70.1212108
  57.0320533   9.7789282  69.8746129  51.1671398   6.7911477  84.9578256
  51.8771016   6.1504669  84.9164875  51.1240706   7.0424372  85.8804437
  59.1558176  13.7278831  87.8784836  59.0970723  13.0438051  87.2115419
  59.5577695  14.4697821  87.4265462  49.8800332   3.7776695  86.7773896
  49.3437689   3.3267434  87.4295492  49.2917040   3.9122604  86.0344360
  48.1748875  20.5440744  80.6718554  48.4145473  21.1759269  81.3497573
  47.3318072  20.1928784  80.9583914  49.2902591   3.2365347  69.3400359
  48.4132057   3.1154147  68.9762606  49.7660344   2.4451425  69.0879248
  59.1575584  11.6918414  86.1098815  58.2702362  11.3544336  86.2325214
  59.7274135  10.9601446  86.3467581  40.8104731   8.0242506  79.4341867
  41.4975771   7.7104236  78.8462882  40.6552859   8.9283871  79.1609118
  45.6139453   2.9132703  83.8626890  45.5297642   2.3058372  83.1277300
  44.7922159   3.4041721  83.8636387  52.6876737  16.3519867  83.0760058
  52.6146908  17.1574838  83.5879363  52.2454130  16.5511833  82.2508080
  52.4766517  15.5891637  76.5862880  51.6934039  16.1313317  76.6801105
  53.1759262  16.1065617  76.9857121  55.7863167   1.3986266  79.2297085
  56.2831866   0.6456229  78.9098156  55.0150148   1.4350583  78.6640295
  63.6392924   7.1026632  80.8715377  63.6282800   7.9851347  80.5009310
  62.7710304   6.7498183  80.6769914  55.1475421  16.2506701  85.2318217
  55.8603393  16.8854166  85.1594119  54.6565449  16.3470567  84.4158219
  56.8692947  10.1557954  76.8035509  55.9349226  10.2759416  76.6340213
  57.0469616   9.2530420  76.5395519  52.3698136   3.5403649  78.9568770
  51.9995923   2.9874690  79.6449676  52.8657228   2.9361783  78.4043770
  60.2565499   5.9975273  77.3385543  60.7225951   6.8303264  77.2645846
  60.7072999   5.5320254  78.0430801  50.1987334  14.0001144  86.0523788
  50.8996794  14.6337627  86.2053182  49.7282449  14.3415876  85.2919427
  58.3241730  12.3419094  74.3371695  58.6001574  12.2275689  75.2465569
  57.4546229  11.9436579  74.2983868  57.9988620   6.5545752  83.8776338
  57.3460070   6.8021659  83.2228791  58.3769000   5.7409890  83.5438816
  54.9595794  16.5905445  77.9804509  55.1418188  15.7727101  78.4432261
  55.7828780  16.8073137  77.5429399  55.2937959  15.5173630  75.2419557
  55.8225726  15.0066085  74.6289719  55.5566179  15.2016160  76.1065090
  54.0476193   7.2965563  90.3642375  53.3716830   7.1959692  91.0344751
  54.8703827   7.1404777  90.8278373  45.7955052  13.5337499  82.9854891
  46.3808489  12.7881187  83.1182795  45.5979891  13.8441456  83.8691555
  48.6493707  16.5688747  78.0017333  47.9804083  17.0534874  77.5181373
  48.5106577  16.8157967  78.9160712  40.3872707   6.1043100  81.7059334
  40.4256806   5.5706690  82.4996452  39.8813000   5.5778305  81.0870311
  52.7898976  18.6032490  84.5999991  53.3417284  18.7664112  85.3649077
  53.1305169  19.1936928  83.9280016  47.7663469   0.9507640  85.2021876
  47.8304796   1.8122471  84.7899274  47.7030589   0.3381642  84.4694235
  57.6409850  13.4293748  90.4548646  58.1849754  14.0423706  89.9603601
  57.0596695  13.9873326  90.9715659  44.0181284   4.8307202  74.7813265
  44.3134726   3.9217880  74.7280319  43.1169320   4.8094941  74.4594268
  55.9267363  16.5514466  81.5863674  55.8018503  15.7504206  81.0774619
  56.5846454  17.0460659  81.0977643  47.5475531   2.9063198  80.7640814
  46.8262117   3.5199166  80.6248287  48.3368787   3.4420963  80.6857460
  57.9902272  14.3523486  83.2143224  57.0432607  14.2328837  83.1421550
  58.3385045  13.4645984  83.2969485  45.7469126   2.5121299  74.9052590
  45.4181832   1.6318678  74.7227696  46.1008497   2.4568968  75.7928980
  54.9948705  14.1476202  79.4147576  54.8473667  13.2192910  79.5955146
  55.8202198  14.1696293  78.9304651  48.8610949   2.7994269  75.2728068
  49.2007022   3.3280190  74.5506676  49.3083070   3.1374675  76.0486635
  58.5982827  14.9704761  80.5012449  59.5229374  14.7647622  80.3636900
  58.4298130  14.7221162  81.4101790  51.5554390   1.1831320  84.7231136
  51.2151210   0.3839133  85.1251816  50.8493396   1.4833031  84.1507969
  52.2070862  -1.7319368  83.1758459  53.0296931  -2.2058889  83.0537349
  52.4508925  -0.9528884  83.6757145  50.8479096   1.2968891  73.4721361
  51.5687459   1.6750144  72.9685078  50.2244400   2.0157768  73.5756339
  54.9910219   2.0014040  74.4079693  55.2073834   2.8838678  74.1068521
  54.5104286   1.6100253  73.6785335  49.7309441   4.9599753  80.9850438
  49.5854021   5.2740056  81.8774719  49.2534644   5.5784653  80.4321336
  51.5905823   1.9502301  81.0331327  51.5767392   1.0543394  80.6963625
  52.3078252   1.9572965  81.6669613  53.4431954   2.3839641  83.0784455
  53.1849732   3.3056712  83.0768785  52.9116995   1.9870076  83.7684919
  58.3878143  15.4890428  75.8574540  58.5615020  14.9236851  75.1048393
  58.8807034  16.2891323  75.6754030  44.2055103   7.5005097  83.9238099
  43.6608571   8.2764905  84.0558373  45.0834453   7.8475902  83.7657220
  50.9942719   0.8316681  76.3018897  51.1158631  -0.0966673  76.5009785
  50.7044762   0.8455367  75.3897213  53.8633910  -1.4828408  79.4385617
  53.8855607  -1.4189075  78.4837597  54.2801969  -2.3223900  79.6326123
  64.2417534   8.2526851  77.4764840  64.6848680   7.5034176  77.0783963
  63.3644044   8.2436988  77.0938572  59.3753315  14.8057193  72.9571438
  60.0704220  15.4263885  73.1758753  59.7176466  13.9552544  73.2323816
  44.9921125   6.6274994  86.8168256  44.2502861   6.7757629  87.4032886
  44.6713869   6.8883259  85.9535005  61.2744739  12.2556898  74.4858769
  61.7996063  12.5944171  73.7608089  61.1867091  11.3203914  74.3021904
  52.9364787  16.1690972  86.6148646  53.2451914  15.9240119  87.4871345
  53.7340269  16.3737610  86.1267516  52.9585399  18.3228882  78.8454022
  52.5190390  17.8305260  79.5386879  53.7093516  17.7801849  78.6046098
  45.4377738  14.5140422  78.8478650  46.2635758  14.2144194  78.4677294
  45.0871790  13.7448045  79.2968439  50.4059271  13.8666891  80.9176324
  49.7839281  13.2037596  80.6178552  51.0764138  13.8928022  80.2349972
  43.6386343  12.4326749  79.8067584  42.8018252  12.0048923  79.6251585
  43.6109989  12.6259192  80.7438375  60.9638645  12.8889802  89.7909967
  60.1734188  12.8713941  89.2514466  60.7271999  13.4278096  90.5459004
  61.0836520   9.7382268  87.1042696  61.1334525   9.5732276  88.0458218
  60.9750443   8.8709527  86.7140576  49.9672778  12.4170814  74.3934785
  50.1160899  13.1006278  73.7401457  50.7739222  12.3975904  74.9084240
  58.3740282   5.7213196  88.4202002  59.2750145   5.5819661  88.1286000
  58.4488257   5.8867651  89.3600180  52.7083087   3.0980051  87.2655189
  51.8386397   3.3913617  86.9937777  52.9442568   3.6820496  87.9862452
  62.5854717  12.1579210  87.3484717  62.2939525  12.5209190  88.1848178
  61.9726848  11.4446218  87.1698049  63.7850399   9.7232090  79.8687287
  64.6197290  10.1621894  80.0324848  63.9209528   9.2470743  79.0495533
  60.8341905   7.2811824  85.8164775  61.3096026   7.4739471  85.0083627
  59.9107470   7.3371010  85.5708159  47.7225411   8.4435992  75.3995853
  47.4771453   7.5398322  75.5976064  47.8921326   8.4453142  74.4575331
  55.4122121  -0.6840332  84.7820609  55.9304065   0.0520695  84.4567098
  55.0577254  -0.3776339  85.6167368  46.9921059   4.1764349  72.8982015
  46.2990304   4.2508704  72.2422051  46.7472811   3.4124693  73.4203532
  53.4668184  14.9118944  71.8646532  52.8942151  15.5309132  71.4117004
  54.0400978  15.4618306  72.3986454  59.5343574   4.1577584  84.0493081
  60.4860997   4.2575682  84.0705305  59.3647024   3.3655853  84.5591165
  57.5557953   1.2433168  84.2352482  56.9607885   1.5238180  83.5398970
  57.2707650   1.7327069  85.0069223  56.6865444  15.1956095  72.9955114
  57.6196117  15.1301656  73.1987990  56.5988657  16.0312361  72.5369647
  59.3153460  14.5121965  69.9559062  59.2367092  14.1781828  70.8494820
  60.1363127  15.0043733  69.9550534  62.0131652   7.3783704  83.1635380
  61.9807972   6.4399705  83.3495064  62.6232275   7.4567741  82.4301205
  53.8514982   6.2479757  69.2062584  54.7974087   6.1185965  69.2751002
  53.4729227   5.5094419  69.6832013  62.1626140   4.1694748  83.2093664
  61.6465189   3.3853204  83.0223592  63.0466089   3.8413464  83.3740183
  67.8308201   8.4399711  82.3041417  68.5611590   8.1784999  82.8649121
  67.2215147   7.7028433  82.3443485  65.9123499   6.5807574  82.9015868
  65.1856662   6.4463539  82.2932360  65.4970785   6.8884402  83.7072586
  53.7353675  10.2997503  90.6663241  54.6556684  10.4776102  90.8603288
  53.7003258   9.3553549  90.5142941  52.0357900   4.1729734  69.1417470
  51.1289355   3.8762846  69.2180183  52.3133881   3.8759552  68.2751756
  42.9535840   5.4936097  79.5916516  42.6338624   4.6401405  79.2990890
  42.4069268   5.7084675  80.3474483  46.7315747   8.2098538  83.3086023
  46.9501757   9.1415646  83.3274056  47.1441521   7.8506512  84.0940826
  53.6519965  -1.2833377  75.2961711  52.8420694  -1.6286292  75.6716957
  54.3404382  -1.5925833  75.8849323  50.8056684   1.0316669  69.2829449
  51.6675848   1.3571567  69.5425266  50.9907028   0.2448165  68.7702515
  42.8224100   9.1139008  81.5609638  42.1287571   8.6992961  81.0479592
  43.5697091   9.1559545  80.9643057  58.9589321  -0.0954805  76.4264672
  58.3787990   0.5629999  76.0442724  58.6925253  -0.9177460  76.0152089
  57.4092887  -0.6949747  78.6285992  57.9092665  -0.5833213  77.8200311
  58.0528495  -0.9988694  79.2686801  44.7360842   9.0457262  79.4375653
  44.7131531   9.1444949  78.4857536  45.0461479   9.8922413  79.7592819
  47.3948220  11.1033417  83.5522267  48.3491474  11.0717360  83.4852198
  47.1960744  10.6424041  84.3672493  47.9847602   9.6734533  86.1193065
  48.8040491  10.1678612  86.1427902  48.2584410   8.7566501  86.0910632
  57.7414199   2.0645286  75.4821020  56.8540054   2.3494936  75.2641215
  58.1568188   1.9039049  74.6348297  61.0928735   2.0891807  79.1975359
  61.8689125   2.5788259  79.4699976  60.3676869   2.5149861  79.6547229
  63.5301293   2.8019426  80.2549300  64.1245784   2.5615162  79.5442608
  63.6027877   2.0826556  80.8822836  45.7498449  16.6453037  80.5692465
  45.6152917  15.8853438  80.0030463  45.3330511  17.3693937  80.1021254
  56.8857412  11.8289960  69.5769040  57.5893262  12.0339963  70.1926696
  56.1620061  12.3966722  69.8418124  57.7155222   7.5799822  75.6971310
  57.6590424   8.0368373  74.8578943  58.2683565   6.8190506  75.5194153
  61.5260028   3.3689553  76.5221430  61.2696963   2.9686189  77.3529637
  60.9012896   4.0833347  76.3971569  65.8372366   6.1085627  79.0292721
  65.2771924   6.1778816  79.8024283  65.2315870   5.9326611  78.3092217
  48.9067575  17.5422354  80.7810907  48.7899959  18.4867786  80.6789598
  48.0860021  17.2395915  81.1696707  58.7944110  12.2672489  71.6267500
  59.6289713  11.8353688  71.4444975  58.6328452  12.0954503  72.5544395
  58.4490002   8.7704603  72.9923839  58.3938806   8.6048874  72.0512284
  57.8236057   9.4780636  73.1486029  55.7635909  11.0753515  92.3177402
  56.6327069  11.2494167  91.9564037  55.2842660  11.8947931  92.1953132
  51.7586127  -1.7287288  72.5709158  51.7464797  -0.7845448  72.7277429
  52.6509549  -1.9117143  72.2768619  49.9322089  18.1950616  83.9966836
  50.8349336  18.2274226  84.3133331  49.7059459  17.2651067  84.0113172
  51.6875691  16.9481602  80.6576914  50.7371322  16.9483464  80.5441287
  51.9908177  16.2014337  80.1412949  67.4228385  22.7842141  81.7222677
  68.0606795  22.6648888  81.0186017  67.3049228  23.7322985  81.7810629
  64.2318091  22.7369569  81.6584202  63.8936602  22.6210633  80.7704736
  65.1007859  22.3360734  81.6385208  60.0904907  24.5905045  77.6481093
  59.5269772  24.4994982  76.8797380  59.9757302  23.7704950  78.1283585
  64.7137874  23.8904420  87.6170407  64.7026515  23.4957219  86.7450911
  64.8758513  23.1570493  88.2104179  57.6369339  26.0856237  80.4865313
  58.4290630  25.7447061  80.0711612  57.8765989  26.1951212  81.4067466
  65.6704465  28.2576013  72.9595557  65.0192445  28.8430093  72.5729571
  66.4648828  28.7882208  73.0190595  59.5960092  25.3465150  73.3582692
  60.3690968  24.7994137  73.2195568  59.9485491  26.2109399  73.5697153
  61.4345135  26.6741532  86.5649591  61.1435001  27.5787163  86.4496257
  62.0702119  26.7158060  87.2793661  62.3601342  24.0518381  83.1550951
  62.9564914  23.8274403  82.4407914  62.4176313  23.3103126  83.7576399
  61.9326370  21.5057816  70.9901142  62.1851891  20.9839337  70.2284605
  60.9950929  21.3423962  71.0927825  66.9769653  20.5093594  78.7975885
  67.7632742  20.0913018  78.4466302  67.2408357  21.4139687  78.9657533
  67.1479730  25.9466445  73.4964542  66.5125563  26.0201071  74.2085446
  66.8177137  26.5360044  72.8183621  72.3778080  20.4468828  79.7008863
  73.1103252  19.8768044  79.9346693  71.6217436  20.0590428  80.1415369
  61.6522659  23.4085922  73.1925517  61.5358917  22.7330825  73.8606601
  61.7624919  22.9218296  72.3757670  63.9954200  22.8696069  76.8972206
  63.6312407  22.3426690  77.6085127  64.8521316  22.4794538  76.7238691
  69.9003501  14.1590402  84.1603472  69.5686825  15.0285813  83.9364687
  69.3049114  13.8426686  84.8397502  63.6359687  17.8985969  71.8933554
  63.8034089  18.7666205  72.2604025  63.4456856  18.0613251  70.9694844
  66.3935020  26.3602948  83.5599385  66.0935743  27.2627987  83.4515192
  66.0486080  26.0935131  84.4120538  59.8447502  22.8116745  79.5936089
  58.9197998  22.6792959  79.8013781  60.0931915  23.5910964  80.0906032
  69.7932164  18.8785488  81.2396822  68.8849041  18.8100896  80.9455583
  69.7419760  19.3557433  82.0678648  63.6148908  20.3543626  72.8780221
  63.4948533  20.8000677  73.7165702  62.9201496  20.7028944  72.3193759
  57.2056313  22.4550018  80.4279878  57.3348694  22.7084497  81.3419290
  56.5253764  23.0477726  80.1084533  61.3755800  33.1247268  76.5270352
  61.2979830  34.0755093  76.6058833  60.7717444  32.7793141  77.1845279
  63.8673030  20.2975133  89.1831719  63.0906364  20.8569054  89.1734584
  64.5063593  20.7831916  89.7046589  71.6593810  17.0801926  83.0174696
  71.0168191  17.3734459  82.3714491  71.1548739  16.9654847  83.8227893
  69.3133974  20.8265100  73.7060555  70.2251830  21.0592486  73.5308253
  68.8043621  21.4102144  73.1435634  62.1219402  23.1060587  88.7449686
  62.8634086  23.6445631  88.4684510  61.4156387  23.7326876  88.9021238
  67.5974742  25.2489727  87.3421848  68.0058098  24.8072138  86.5976480
  66.8752003  24.6742355  87.5956041  63.9505812  20.1862334  84.7155405
  64.7967007  20.6101748  84.8590054  63.8904449  19.5295958  85.4093968
  67.9203556  25.8090918  81.0974137  67.2912419  25.9736632  80.3950205
  67.5329218  26.2232528  81.8685101  71.7992788  26.7445356  78.4518500
  71.1143826  27.1244257  77.9015534  71.8836637  27.3540682  79.1850448
  67.1005257  17.8466702  86.3736578  66.8566189  18.6008763  85.8370854
  67.3765188  18.2252050  87.2083826  69.0543720  24.3905315  85.0513844
  69.2660615  25.0337075  84.3748225  69.0073468  23.5567631  84.5835774
  66.6569949  17.0023135  81.9550416  65.7954428  17.3004389  82.2467154
  66.6832383  17.2193534  81.0231449  63.4731518  25.5465326  78.3624222
  63.9369864  25.8253029  77.5728844  63.2088316  24.6448771  78.1797313
  60.3655599  25.0936808  81.3003985  60.9356956  25.5224076  80.6621470
  60.9563711  24.8119392  81.9988171  62.4100404  21.6688478  75.1713787
  63.1124448  22.1209522  75.6387713  62.0781033  21.0272297  75.7993680
  60.8580766  20.2600235  89.5464996  60.2279426  20.9416516  89.7800393
  60.7516854  20.1483317  88.6018135  56.1525738  19.9272031  80.4730921
  55.3624792  20.1829560  79.9971031  56.6436986  20.7420369  80.5782961
  70.1689548  27.2677270  83.2236201  70.9906991  26.8657458  82.9418883
  70.1651951  27.1645504  84.1752317  58.1040484  20.2916610  77.4314397
  57.3071647  20.4035305  77.9497893  57.8766076  20.6303263  76.5655288
  63.9346151  26.8161314  85.3796912  63.9990584  27.2781721  86.2155084
  63.2257075  26.1858678  85.5079222  54.4363441  20.1802522  82.9045911
  54.6871480  21.0649531  83.1703487  54.9722990  20.0007123  82.1321003
  78.2595541  23.6116019  79.5721173  77.5059249  23.0423417  79.4165177
  78.3943082  23.5778683  80.5191808  63.6494169  28.4829421  75.2475892
  63.5139844  29.3280957  75.6760740  64.1903981  28.6848699  74.4841826
  60.1361508  14.5621001  91.9090247  59.7428454  14.0087199  92.5837892
  60.9527649  14.8731579  92.2996765  57.1023566  26.0004859  75.8203817
  57.6148087  26.7948109  75.9709382  57.7546279  25.3031150  75.7537419
  58.9118451  29.1170615  77.9026570  59.0885079  30.0388580  77.7147554
  59.7075284  28.8029035  78.3320950  63.0529469  15.9778880  89.5010504
  63.7939183  16.5786033  89.4214966  63.2847392  15.2356518  88.9428547
  58.1970807  21.1635247  87.7788734  58.0824323  20.2620504  88.0795833
  57.3415325  21.4098944  87.4273550  65.2762645  29.1052988  89.3776234
  64.8326499  28.3189366  89.0597139  65.9379859  29.2932138  88.7120125
  60.0349766  30.6348789  83.9036913  60.5857192  30.5065852  83.1313907
  59.1961242  30.9343678  83.5531806  67.3743883  29.3855787  87.4057636
  67.3562359  30.2064669  86.9137905  68.2963803  29.2609863  87.6307777
  63.8316937  26.8999917  88.2481144  64.3645274  26.1388205  88.0180452
  63.3031019  26.6073569  88.9905298  66.9986632  12.0059983  83.7774786
  66.6550902  12.8961625  83.7013896  67.3665595  11.8161641  82.9144371
  55.0672483  24.3293513  76.5963388  55.9047705  24.7390522  76.3797096
  55.2450751  23.3892956  76.5663582  66.9636915  21.9968594  72.2847221
  66.4483539  22.7673199  72.5235608  66.6914224  21.3233730  72.9080282
  64.5484026  16.8418295  77.3432459  63.6925622  16.4525145  77.1638098
  64.9610978  16.9210256  76.4832245  66.0783173  14.3764638  81.7424019
  65.5747968  14.3394773  80.9291824  66.3713780  15.2857381  81.8020676
  62.3226059  14.4603368  80.7490201  63.1879055  14.2646176  80.3896090
  62.3903568  14.2313720  81.6759557  71.9371189  24.7500949  74.2200394
  71.1600632  24.4112108  73.7755556  72.6162670  24.7553572  73.5455359
  66.7523218  19.8695686  74.1107002  66.4473354  20.1841835  74.9617145
  67.7053660  19.9477106  74.1534335  65.1969650  26.0285909  75.7599956
  64.6691012  25.2938669  75.4473193  64.6957153  26.8060586  75.5139924
  70.1762496  24.2234930  80.8767002  69.5186171  24.9134191  80.9647131
  70.9802895  24.6131362  81.2200989  59.9288378  16.6905576  78.1206567
  60.5032130  16.4680757  77.3879760  60.5159360  16.7594270  78.8735169
  68.9867955  22.5779303  78.9270944  69.4999837  23.2109294  79.4292654
  69.6369179  21.9780498  78.5614304  60.2557965  18.7210037  72.1402453
  59.4195277  19.0584723  72.4611727  60.1162735  18.5859017  71.2029590
  62.2311045  13.5646825  76.8481637  61.5775458  13.2495842  76.2238252
  62.1891520  12.9422565  77.5741460  63.3422250  23.8466120  68.7634929
  62.4349312  23.6155373  68.9626078  63.8393282  23.0503739  68.9508911
  66.2490329  32.5563627  71.6831615  65.5752028  32.8595324  72.2916573
  66.6356151  33.3592707  71.3337072  65.4648786  20.0528758  81.1729285
  64.5471347  20.2743705  81.0150973  65.8808929  20.1275069  80.3140992
  66.2483834  21.4520174  76.3031965  66.9955653  21.9641571  75.9939087
  66.5175423  21.1304227  77.1636358  64.5210484  23.9478715  73.2858919
  63.6121703  23.6637747  73.3831389  64.5505568  24.3677793  72.4262226
  69.7529751  27.5585304  77.0550087  69.2992078  26.7176214  77.1115277
  69.1223718  28.1946702  77.3924867  68.6962671  18.4877290  78.2850754
  67.9585428  17.9754676  78.6160997  68.9489444  18.0477672  77.4734031
  68.1962690  29.3961801  77.9899905  68.4885665  29.9566858  77.2712270
  68.7061311  29.6890362  78.7453064  68.7974298  11.2653542  78.8792523
  69.1033175  10.4050906  78.5918438  69.5226903  11.8571162  78.6791517
  55.0898654  21.6684229  77.2674121  54.8923054  21.0753589  76.5425188
  54.5345318  21.3636439  77.9850060  63.0695378  21.5607335  79.3868714
  63.1243988  20.6081172  79.3111191  62.2586580  21.7166774  79.8710013
  64.2186572  25.4887458  70.6246998  63.7806001  24.7723317  70.1652635
  64.9597012  25.7163573  70.0632089  61.0087738  20.1784395  77.1459093
  60.1955603  20.4778565  77.5524285  61.5046732  19.7840084  77.8633576
  63.1596316  30.1742152  79.0793358  63.1172494  30.4002998  78.1501890
  64.0759014  29.9405526  79.2279159  66.6061949  20.6426219  85.9773987
  66.9611337  20.8697693  86.8368453  67.2534081  20.9744596  85.3551242
  72.3359686  23.7644655  76.6823316  72.1977585  23.9546251  75.7544505
  71.9795905  24.5264038  77.1391367  60.5001812  17.7502750  82.7620328
  61.1401192  17.6091510  82.0643292  59.6679343  17.4637264  82.3858930
  72.3629066  25.8321182  81.6934588  72.7965573  25.7396471  82.5417642
  73.0760647  25.8078683  81.0554604  61.2762116  27.0505181  78.8755321
  62.0702715  26.5555501  78.6737896  60.5653809  26.5223044  78.5123026
  66.0956961  29.4323276  83.2267688  66.1493983  30.0014213  83.9945404
  65.2271742  29.6025161  82.8621725  57.5844880  21.1948263  74.9515073
  56.6542468  21.1332718  75.1685036  57.6802352  20.6724215  74.1551715
  57.5030429  17.7203075  77.5393315  57.7637246  18.6348409  77.4302475
  58.3247601  17.2527518  77.6889928  58.9755354  19.1340833  84.7092140
  59.6478408  18.9258195  84.0604788  58.1485141  18.9362919  84.2697372
  73.2244616  25.8744883  84.2267473  73.4180506  26.7790693  84.4726748
  73.1245234  25.4152302  85.0606058  64.8780926  15.7602774  86.7257800
  64.2308841  16.4592723  86.6322277  65.6481942  16.1938917  87.0934049
  68.2859724  26.0251626  89.8008354  68.1345231  25.7962177  88.8838437
  68.2764404  26.9822227  89.8139699  65.0545061  23.5983538  84.7854620
  65.9837121  23.7494698  84.6123587  64.6336091  23.6867559  83.9303267
  63.8533392  27.6234203  82.5553158  63.7144478  27.2552987  83.4279096
  63.0647989  28.1381842  82.3837116  64.4481544  32.7243299  73.8978694
  64.6233300  32.2531342  74.7124317  63.7614332  33.3509066  74.1259955
  65.4038608  27.0015806  79.9441996  65.0688440  26.9616576  80.8399645
  64.9042553  26.3360521  79.4712406  59.3782851  22.4083436  85.4694577
  59.2402649  21.6763674  86.0706116  60.2887775  22.3192336  85.1878764
  68.3397799  24.3471840  70.2179055  67.7226970  23.6218668  70.1212108
  67.8714288  25.1081200  69.8746129  62.0065152  22.1203395  84.9578256
  62.7164771  21.4796587  84.9164875  61.9634460  22.3716290  85.8804437
  69.9951931  29.0570748  87.8784836  69.9364477  28.3729968  87.2115419
  70.3971449  29.7989738  87.4265462  60.7194086  19.1068613  86.7773896
  60.1831443  18.6559351  87.4295492  60.1310795  19.2414522  86.0344360
  59.0142630  35.8732662  80.6718554  59.2539228  36.5051186  81.3497573
  58.1711826  35.5220702  80.9583914  60.1296345  18.5657264  69.3400359
  59.2525811  18.4446065  68.9762606  60.6054098  17.7743342  69.0879248
  69.9969338  27.0210332  86.1098815  69.1096117  26.6836254  86.2325214
  70.5667889  26.2893363  86.3467581  51.6498485  23.3534424  79.4341867
  52.3369525  23.0396154  78.8462882  51.4946614  24.2575789  79.1609118
  56.4533207  18.2424620  83.8626890  56.3691396  17.6350290  83.1277300
  55.6315914  18.7333639  83.8636387  63.5270492  31.6811785  83.0760058
  63.4540663  32.4866756  83.5879363  63.0847885  31.8803750  82.2508080
  63.3160271  30.9183555  76.5862880  62.5327793  31.4605235  76.6801105
  64.0153016  31.4357534  76.9857121  66.6256921  16.7278184  79.2297085
  67.1225621  15.9748146  78.9098156  65.8543903  16.7642501  78.6640295
  74.4786679  22.4318550  80.8715377  74.4676555  23.3143265  80.5009310
  73.6104058  22.0790100  80.6769914  65.9869175  31.5798619  85.2318217
  66.6997147  32.2146083  85.1594119  65.4959204  31.6762485  84.4158219
  67.7086702  25.4849871  76.8035509  66.7742981  25.6051334  76.6340213
  67.8863370  24.5822338  76.5395519  63.2091890  18.8695567  78.9568770
  62.8389678  18.3166607  79.6449676  63.7050982  18.2653700  78.4043770
  71.0959253  21.3267190  77.3385543  71.5619705  22.1595182  77.2645846
  71.5466754  20.8612172  78.0430801  61.0381089  29.3293062  86.0523788
  61.7390548  29.9629545  86.2053182  60.5676204  29.6707794  85.2919427
  69.1635484  27.6711012  74.3371695  69.4395328  27.5567606  75.2465569
  68.2939983  27.2728497  74.2983868  69.0675916  13.6947777  81.3776444
  68.1538996  13.9252004  81.5458651  69.4969017  13.7786222  82.2290477
  68.8382375  21.8837669  83.8776338  68.1853825  22.1313577  83.2228791
  69.2162754  21.0701808  83.5438816  65.7989548  31.9197363  77.9804509
  65.9811943  31.1019019  78.4432261  66.6222534  32.1365055  77.5429399
  66.1331714  30.8465548  75.2419557  66.6619480  30.3358002  74.6289719
  66.3959933  30.5308078  76.1065090  64.8869948  22.6257481  90.3642375
  64.2110585  22.5251610  91.0344751  65.7097581  22.4696694  90.8278373
  56.6348807  28.8629417  82.9854891  57.2202243  28.1173105  83.1182795
  56.4373645  29.1733374  83.8691555  59.4887462  31.8980664  78.0017333
  58.8197837  32.3826792  77.5181373  59.3500332  32.1449885  78.9160712
  51.2266461  21.4335017  81.7059334  51.2650561  20.8998608  82.4996452
  50.7206754  20.9070223  81.0870311  63.6292730  33.9324408  84.5999991
  64.1811038  34.0956029  85.3649077  63.9698924  34.5228846  83.9280016
  58.6057224  16.2799558  85.2021876  58.6698550  17.1414389  84.7899274
  58.5424344  15.6673559  84.4694235  58.0809496  18.3522690  88.8494910
  58.7081535  17.9699768  89.4632435  57.2237415  18.1336892  89.2150603
  68.4803605  28.7585665  90.4548646  69.0243509  29.3715624  89.9603601
  67.8990450  29.3165244  90.9715659  54.8575039  20.1599119  74.7813265
  55.1528480  19.2509798  74.7280319  53.9563075  20.1386859  74.4594268
  66.7661118  31.8806383  81.5863674  66.6412257  31.0796123  81.0774619
  67.4240209  32.3752577  81.0977643  58.3869286  18.2355116  80.7640814
  57.6655872  18.8491084  80.6248287  59.1762542  18.7712881  80.6857460
  68.8296026  29.6815404  83.2143224  67.8826362  29.5620755  83.1421550
  69.1778799  28.7937902  83.2969485  61.1895599  15.5709542  87.0381466
  61.7130001  15.8171839  87.8007775  60.9707933  16.4029577  86.6184603
  56.5862881  17.8413217  74.9052590  56.2575587  16.9610596  74.7227696
  56.9402251  17.7860886  75.7928980  65.8342459  29.4768120  79.4147576
  65.6867422  28.5484827  79.5955146  66.6595953  29.4988211  78.9304651
  59.7004704  18.1286187  75.2728068  60.0400776  18.6572108  74.5506676
  60.1476824  18.4666593  76.0486635  69.4376581  30.2996679  80.5012449
  70.3623129  30.0939540  80.3636900  69.2691885  30.0513080  81.4101790
  62.3948145  16.5123238  84.7231136  62.0544965  15.7131051  85.1251816
  61.6887151  16.8124948  84.1507969  63.0464616  13.5972550  83.1758459
  63.8690686  13.1233028  83.0537349  63.2902680  14.3763034  83.6757145
  61.6872851  16.6260808  73.4721361  62.4081213  17.0042061  72.9685078
  61.0638155  17.3449685  73.5756339  65.8303974  17.3305957  74.4079693
  66.0467588  18.2130595  74.1068521  65.3498041  16.9392171  73.6785335
  60.5703195  20.2891671  80.9850438  60.4247776  20.6031974  81.8774719
  60.0928399  20.9076571  80.4321336  62.4299578  17.2794219  81.0331327
  62.4161147  16.3835312  80.6963625  63.1472006  17.2864882  81.6669613
  64.2825709  17.7131559  83.0784455  64.0243487  18.6348630  83.0768785
  63.7510749  17.3161993  83.7684919  69.2271897  30.8182346  75.8574540
  69.4008775  30.2528768  75.1048393  69.7200789  31.6183241  75.6754030
  55.0448857  22.8297015  83.9238099  54.5002325  23.6056823  84.0558373
  55.9228207  23.1767820  83.7657220  61.8336474  16.1608599  76.3018897
  61.9552385  15.2325245  76.5009785  61.5438516  16.1747285  75.3897213
  64.7027664  13.8463509  79.4385617  64.7249361  13.9102842  78.4837597
  65.1195723  13.0068018  79.6326123  75.0811289  23.5818769  77.4764840
  75.5242435  22.8326094  77.0783963  74.2037799  23.5728905  77.0938572
  70.2147070  30.1349110  72.9571438  70.9097975  30.7555803  73.1758753
  70.5570220  29.2844462  73.2323816  55.8314879  21.9566911  86.8168256
  55.0896615  22.1049547  87.4032886  55.5107623  22.2175177  85.9535005
  72.1138493  27.5848816  74.4858769  72.6389817  27.9236089  73.7608089
  72.0260846  26.6495831  74.3021904  63.7758542  31.4982890  86.6148646
  64.0845668  31.2532036  87.4871345  64.5734024  31.7029528  86.1267516
  63.7979154  33.6520799  78.8454022  63.3584144  33.1597178  79.5386879
  64.5487271  33.1093767  78.6046098  56.2771493  29.8432340  78.8478650
  57.1029513  29.5436112  78.4677294  55.9265545  29.0739962  79.2968439
  61.2453026  29.1958808  80.9176324  60.6233035  28.5329513  80.6178552
  61.9157893  29.2219940  80.2349972  54.4780098  27.7618667  79.8067584
  53.6412006  27.3340841  79.6251585  54.4503743  27.9551110  80.7438375
  61.3177553  17.6740596  90.5108830  61.3665709  18.5502719  90.1286600
  61.8600068  17.1317989  89.9380473  71.8032399  28.2181720  89.7909967
  71.0127943  28.2005858  89.2514466  71.5665754  28.7570013  90.5459004
  71.9230274  25.0674186  87.1042696  71.9728279  24.9024193  88.0458218
  71.8144198  24.2001445  86.7140576  60.8066533  27.7462732  74.3934785
  60.9554653  28.4298196  73.7401457  61.6132976  27.7267822  74.9084240
  69.2134037  21.0505114  88.4202002  70.1143899  20.9111579  88.1286000
  69.2882011  21.2159569  89.3600180  63.5476842  18.4271969  87.2655189
  62.6780151  18.7205535  86.9937777  63.7836322  19.0112414  87.9862452
  73.4248471  27.4871127  87.3484717  73.1333279  27.8501108  88.1848178
  72.8120602  26.7738136  87.1698049  74.6244153  25.0524007  79.8687287
  75.4591045  25.4913811  80.0324848  74.7603282  24.5762660  79.0495533
  71.6735659  22.6103742  85.8164775  72.1489781  22.8031388  85.0083627
  70.7501225  22.6662928  85.5708159  58.5619166  23.7727909  75.3995853
  58.3165208  22.8690239  75.5976064  58.7315080  23.7745060  74.4575331
  66.2515876  14.6451586  84.7820609  66.7697820  15.3812613  84.4567098
  65.8971008  14.9515579  85.6167368  57.8314813  19.5056267  72.8982015
  57.1384058  19.5800622  72.2422051  57.5866565  18.7416610  73.4203532
  66.5028470  11.0651868  80.3021506  66.7830224  10.3975057  80.9281932
  67.2879077  11.2580964  79.7896169  64.3061938  30.2410862  71.8646532
  63.7335905  30.8601049  71.4117004  64.8794732  30.7910224  72.3986454
  70.3737328  19.4869502  84.0493081  71.3254751  19.5867600  84.0705305
  70.2040779  18.6947771  84.5591165  68.3951708  16.5725085  84.2352482
  67.8001640  16.8530098  83.5398970  68.1101404  17.0618986  85.0069223
  67.5259198  30.5248012  72.9955114  68.4589871  30.4593574  73.1987990
  67.4382411  31.3604279  72.5369647  70.1547215  29.8413883  69.9559062
  70.0760846  29.5073746  70.8494820  70.9756882  30.3335650  69.9550534
  72.8525406  22.7075622  83.1635380  72.8201726  21.7691623  83.3495064
  73.4626030  22.7859659  82.4301205  64.6908737  21.5771675  69.2062584
  65.6367842  21.4477883  69.2751002  64.3122982  20.8386337  69.6832013
  73.0019895  19.4986665  83.2093664  72.4858943  18.7145122  83.0223592
  73.8859843  19.1705382  83.3740183  70.6630621  13.2427681  79.1689476
  70.4655443  12.9342769  80.0532808  71.2730327  13.9689320  79.2987406
  78.6701956  23.7691629  82.3041417  79.4005344  23.5076917  82.8649121
  78.0608901  23.0320351  82.3443485  76.7517253  21.9099491  82.9015868
  76.0250417  21.7755456  82.2932360  76.3364540  22.2176320  83.7072586
  64.5747429  25.6289421  90.6663241  65.4950439  25.8068020  90.8603288
  64.5397012  24.6845466  90.5142941  62.8751654  19.5021651  69.1417470
  61.9683109  19.2054764  69.2180183  63.1527635  19.2051469  68.2751756
  53.7929594  20.8228015  79.5916516  53.4732379  19.9693323  79.2990890
  53.2463023  21.0376593  80.3474483  57.5709502  23.5390456  83.3086023
  57.7895512  24.4707563  83.3274056  57.9835276  23.1798430  84.0940826
  64.4913720  14.0458541  75.2961711  63.6814448  13.7005626  75.6716957
  65.1798137  13.7366085  75.8849323  66.4204268  13.1236588  76.9186008
  66.9735307  13.5432041  77.5776031  66.6574354  12.1972336  76.9608964
  62.4437367  19.1123661  92.6988771  62.3434094  20.0618018  92.6300863
  62.2258909  18.7841900  91.8264842  61.6450439  16.3608586  69.2829449
  62.5069603  16.6863485  69.5425266  61.8300783  15.5740082  68.7702515
  53.6617854  24.4430926  81.5609638  52.9681326  24.0284879  81.0479592
  54.4090845  24.4851463  80.9643057  69.7983075  15.2337113  76.4264672
  69.2181744  15.8921917  76.0442724  69.5319008  14.4114457  76.0152089
  68.2486642  14.6342171  78.6285992  68.7486420  14.7458705  77.8200311
  68.8922249  14.3303223  79.2686801  62.3068637  22.5420800  91.5153833
  61.8235719  23.3421160  91.7217722  62.3929576  22.5528745  90.5621277
  55.5754597  24.3749180  79.4375653  55.5525285  24.4736867  78.4857536
  55.8855233  25.2214331  79.7592819  58.2341975  26.4325335  83.5522267
  59.1885228  26.4009277  83.4852198  58.0354498  25.9715959  84.3672493
  58.8241357  25.0026451  86.1193065  59.6434246  25.4970530  86.1427902
  59.0978165  24.0858419  86.0910632  68.5807953  17.3937203  75.4821020
  67.6933808  17.6786854  75.2641215  68.9961942  17.2330967  74.6348297
  71.9322489  17.4183724  79.1975359  72.7082879  17.9080177  79.4699976
  71.2070623  17.8441778  79.6547229  74.3695048  18.1311343  80.2549300
  74.9639539  17.8907079  79.5442608  74.4421632  17.4118474  80.8822836
  56.5892204  31.9744954  80.5692465  56.4546672  31.2145355  80.0030463
  56.1724266  32.6985854  80.1021254  67.7251167  27.1581878  69.5769040
  68.4287017  27.3631880  70.1926696  67.0013815  27.7258640  69.8418124
  68.5548977  22.9091739  75.6971310  68.4984178  23.3660291  74.8578943
  69.1077319  22.1482424  75.5194153  72.3653783  18.6981471  76.5221430
  72.1090717  18.2978107  77.3529637  71.7406651  19.4125265  76.3971569
  76.6766121  21.4377544  79.0292721  76.1165679  21.5070734  79.8024283
  76.0709624  21.2618529  78.3092217  59.7461329  32.8714271  80.7810907
  59.6293714  33.8159704  80.6789598  58.9253776  32.5687833  81.1696707
  69.6337864  27.5964407  71.6267500  70.4683468  27.1645606  71.4444975
  69.4722207  27.4246421  72.5544395  69.2883756  24.0996520  72.9923839
  69.2332560  23.9340792  72.0512284  68.6629811  24.8072553  73.1486029
  54.0776271  19.3364585  86.8185262  54.7235135  18.8263539  87.3072487
  53.8693422  20.0733266  87.3928687  66.6029663  26.4045432  92.3177402
  67.4720823  26.5786085  91.9564037  66.1236415  27.2239849  92.1953132
  62.5979882  13.6004629  72.5709158  62.5858551  14.5446469  72.7277429
  63.4903304  13.4174775  72.2768619  60.7715844  33.5242533  83.9966836
  61.6743090  33.5566144  84.3133331  60.5453214  32.5942984  84.0113172
  62.5269446  32.2773520  80.6576914  61.5765077  32.2775381  80.5441287
  62.8301932  31.5306254  80.1412949  66.4132001  10.1947406  76.8255095
  65.6464397   9.6405893  76.9711777  66.8242706  10.2669275  77.6869246
  58.4173762  16.4832202  90.9160276  59.2805224  16.1269007  91.1263600
  57.8439173  16.1446097  91.6035680  78.2622139  38.1134058  81.7222677
  78.9000549  37.9940806  81.0186017  78.1442982  39.0614902  81.7810629
  75.0711845  38.0661486  81.6584202  74.7330357  37.9502551  80.7704736
  75.9401614  37.6652651  81.6385208  70.9298661  39.9196963  77.6481093
  70.3663526  39.8286900  76.8797380  70.8151056  39.0996867  78.1283585
  75.5531628  39.2196338  87.6170407  75.5420269  38.8249136  86.7450911
  75.7152268  38.4862411  88.2104179  68.4763093  41.4148154  80.4865313
  69.2684385  41.0738979  80.0711612  68.7159743  41.5243129  81.4067466
  76.5098220  43.5867930  72.9595557  75.8586200  44.1722011  72.5729571
  77.3042583  44.1174125  73.0190595  70.4353847  40.6757068  73.3582692
  71.2084723  40.1286055  73.2195568  70.7879246  41.5401317  73.5697153
  72.2738890  42.0033450  86.5649591  71.9828756  42.9079081  86.4496257
  72.9095874  42.0449977  87.2793661  73.1995096  39.3810298  83.1550951
  73.7958669  39.1566321  82.4407914  73.2570068  38.6395044  83.7576399
  72.7720125  36.8349734  70.9901142  73.0245645  36.3131255  70.2284605
  71.8344684  36.6715879  71.0927825  77.8163408  35.8385512  78.7975885
  78.6026497  35.4204935  78.4466302  78.0802112  36.7431604  78.9657533
  77.9873485  41.2758362  73.4964542  77.3519318  41.3492989  74.2085446
  77.6570891  41.8651961  72.8183621  83.2171835  35.7760745  79.7008863
  83.9497007  35.2059962  79.9346693  82.4611190  35.3882346  80.1415369
  72.4916414  38.7377840  73.1925517  72.3752672  38.0622743  73.8606601
  72.6018673  38.2510214  72.3757670  74.8347954  38.1987987  76.8972206
  74.4706162  37.6718608  77.6085127  75.6915070  37.8086456  76.7238691
  80.7397255  29.4882319  84.1603472  80.4080580  30.3577730  83.9364687
  80.1442868  29.1718603  84.8397502  74.4753441  33.2277886  71.8933554
  74.6427844  34.0958123  72.2604025  74.2850611  33.3905168  70.9694844
  77.2328775  41.6894865  83.5599385  76.9329498  42.5919904  83.4515192
  76.8879834  41.4227049  84.4120538  70.6841256  38.1408662  79.5936089
  69.7591753  38.0084876  79.8013781  70.9325669  38.9202881  80.0906032
  80.6325918  34.2077406  81.2396822  79.7242796  34.1392814  80.9455583
  80.5813514  34.6849351  82.0678648  74.4542662  35.6835544  72.8780221
  74.3342288  36.1292595  73.7165702  73.7595251  36.0320862  72.3193759
  68.0450067  37.7841936  80.4279878  68.1742448  38.0376415  81.3419290
  67.3647518  38.3769644  80.1084533  72.2149554  48.4539186  76.5270352
  72.1373584  49.4047011  76.6058833  71.6111198  48.1085058  77.1845279
  74.7066784  35.6267051  89.1831719  73.9300118  36.1860971  89.1734584
  75.3457347  36.1123834  89.7046589  82.4987565  32.4093844  83.0174696
  81.8561945  32.7026377  82.3714491  81.9942493  32.2946764  83.8227893
  80.1527728  36.1557017  73.7060555  81.0645585  36.3884404  73.5308253
  79.6437376  36.7394061  73.1435634  72.9613156  38.4352505  88.7449686
  73.7027841  38.9737548  88.4684510  72.2550142  39.0618793  88.9021238
  78.4368496  40.5781645  87.3421848  78.8451852  40.1364056  86.5976480
  77.7145758  40.0034273  87.5956041  74.7899566  35.5154252  84.7155405
  75.6360761  35.9393665  84.8590054  74.7298204  34.8587876  85.4093968
  78.7597311  41.1382836  81.0974137  78.1306173  41.3028550  80.3950205
  78.3722973  41.5524445  81.8685101  82.6386543  42.0737273  78.4518500
  81.9537581  42.4536175  77.9015534  82.7230392  42.6832600  79.1850448
  77.9399012  33.1758620  86.3736578  77.6959943  33.9300681  85.8370854
  78.2158942  33.5543968  87.2083826  79.8937474  39.7197232  85.0513844
  80.1054370  40.3628992  84.3748225  79.8467223  38.8859549  84.5835774
  77.4963703  32.3315053  81.9550416  76.6348182  32.6296307  82.2467154
  77.5226138  32.5485452  81.0231449  74.3125273  40.8757244  78.3624222
  74.7763618  41.1544947  77.5728844  74.0482071  39.9740688  78.1797313
  71.2049354  40.4228725  81.3003985  71.7750711  40.8515994  80.6621470
  71.7957466  40.1411310  81.9988171  73.2494159  36.9980396  75.1713787
  73.9518202  37.4501440  75.6387713  72.9174787  36.3564215  75.7993680
  71.6974520  35.5892153  89.5464996  71.0673181  36.2708434  89.7800393
  71.5910608  35.4775234  88.6018135  66.9919493  35.2563949  80.4730921
  66.2018547  35.5121477  79.9971031  67.4830740  36.0712287  80.5782961
  81.0083302  42.5969188  83.2236201  81.8300746  42.1949375  82.9418883
  81.0045705  42.4937422  84.1752317  68.9434238  35.6208528  77.4314397
  68.1465401  35.7327222  77.9497893  68.7159830  35.9595180  76.5655288
  74.7739906  42.1453231  85.3796912  74.8384338  42.6073638  86.2155084
  74.0650830  41.5150596  85.5079222  65.2757196  35.5094439  82.9045911
  65.5265234  36.3941449  83.1703487  65.8116744  35.3299041  82.1321003
  89.0989295  38.9407936  79.5721173  88.3453004  38.3715334  79.4165177
  89.2336836  38.9070601  80.5191808  74.4887923  43.8121339  75.2475892
  74.3533598  44.6572874  75.6760740  75.0297736  44.0140616  74.4841826
  70.9755263  29.8912919  91.9090247  70.5822209  29.3379117  92.5837892
  71.7921403  30.2023497  92.2996765  67.9417321  41.3296777  75.8203817
  68.4541841  42.1240027  75.9709382  68.5940034  40.6323067  75.7537419
  69.7512205  44.4462533  77.9026570  69.9278834  45.3680498  77.7147554
  70.5469039  44.1320952  78.3320950  73.8923224  31.3070798  89.5010504
  74.6332937  31.9077951  89.4214966  74.1241147  30.5648435  88.9428547
  69.0364562  36.4927165  87.7788734  68.9218077  35.5912422  88.0795833
  68.1809080  36.7390862  87.4273550  76.1156400  44.4344905  89.3776234
  75.6720254  43.6481284  89.0597139  76.7773613  44.6224056  88.7120125
  70.8743521  45.9640707  83.9036913  71.4250946  45.8357770  83.1313907
  70.0354997  46.2635596  83.5531806  78.2137638  44.7147705  87.4057636
  78.1956113  45.5356586  86.9137905  79.1357558  44.5901780  87.6307777
  74.6710692  42.2291835  88.2481144  75.2039029  41.4680123  88.0180452
  74.1424773  41.9365486  88.9905298  77.8380387  27.3351901  83.7774786
  77.4944656  28.2253542  83.7013896  78.2059349  27.1453558  82.9144371
  65.9066237  39.6585431  76.5963388  66.7441460  40.0682439  76.3797096
  66.0844505  38.7184873  76.5663582  77.8030670  37.3260512  72.2847221
  77.2877293  38.0965116  72.5235608  77.5307978  36.6525648  72.9080282
  75.3877781  32.1710212  77.3432459  74.5319377  31.7817063  77.1638098
  75.8004732  32.2502173  76.4832245  76.9176927  29.7056556  81.7424019
  76.4141723  29.6686691  80.9291824  77.2107534  30.6149298  81.8020676
  73.1619813  29.7895285  80.7490201  74.0272810  29.5938094  80.3896090
  73.2297322  29.5605637  81.6759557  82.7764944  40.0792866  74.2200394
  81.9994387  39.7404026  73.7755556  83.4556425  40.0845490  73.5455359
  77.5916973  35.1987604  74.1107002  77.2867108  35.5133753  74.9617145
  78.5447415  35.2769024  74.1534335  76.0363405  41.3577827  75.7599956
  75.5084766  40.6230587  75.4473193  75.5350907  42.1352503  75.5139924
  81.0156251  39.5526848  80.8767002  80.3579925  40.2426109  80.9647131
  81.8196650  39.9423280  81.2200989  70.7682132  32.0197493  78.1206567
  71.3425884  31.7972675  77.3879760  71.3553115  32.0886188  78.8735169
  79.8261709  37.9071220  78.9270944  80.3393591  38.5401212  79.4292654
  80.4762933  37.3072416  78.5614304  71.0951719  34.0501954  72.1402453
  70.2589032  34.3876641  72.4611727  70.9556489  33.9150934  71.2029590
  73.0704800  28.8938742  76.8481637  72.4169212  28.5787759  76.2238252
  73.0285274  28.2714483  77.5741460  74.1816005  39.1758037  68.7634929
  73.2743067  38.9447291  68.9626078  74.6787037  38.3795657  68.9508911
  77.0884084  47.8855545  71.6831615  76.4145782  48.1887241  72.2916573
  77.4749906  48.6884625  71.3337072  76.3042540  35.3820676  81.1729285
  75.3865102  35.6035623  81.0150973  76.7202684  35.4566986  80.3140992
  77.0877588  36.7812092  76.3031965  77.8349407  37.2933489  75.9939087
  77.3569178  36.4596144  77.1636358  75.3604238  39.2770632  73.2858919
  74.4515458  38.9929665  73.3831389  75.3899322  39.6969711  72.4262226
  80.5923506  42.8877222  77.0550087  80.1385833  42.0468132  77.1115277
  79.9617472  43.5238620  77.3924867  79.5356425  33.8169208  78.2850754
  78.7979182  33.3046594  78.6160997  79.7883199  33.3769589  77.4734031
  79.0356445  44.7253718  77.9899905  79.3279419  45.2858776  77.2712270
  79.5455065  45.0182279  78.7453064  79.6368053  26.5945460  78.8792523
  79.9426929  25.7342823  78.5918438  80.3620657  27.1863080  78.6791517
  65.9292409  36.9976146  77.2674121  65.7316808  36.4045507  76.5425188
  65.3739073  36.6928357  77.9850060  73.9089132  36.8899253  79.3868714
  73.9637742  35.9373089  79.3111191  73.0980334  37.0458692  79.8710013
  75.0580326  40.8179376  70.6246998  74.6199756  40.1015235  70.1652635
  75.7990767  41.0455491  70.0632089  71.8481492  35.5076313  77.1459093
  71.0349358  35.8070483  77.5524285  72.3440486  35.1132001  77.8633576
  73.9990070  45.5034070  79.0793358  73.9566249  45.7294916  78.1501890
  74.9152769  45.2697444  79.2279159  77.4455704  35.9718137  85.9773987
  77.8005092  36.1989610  86.8368453  78.0927835  36.3036514  85.3551242
  83.1753441  39.0936573  76.6823316  83.0371339  39.2838169  75.7544505
  82.8189660  39.8555956  77.1391367  71.3395567  33.0794668  82.7620328
  71.9794946  32.9383427  82.0643292  70.5073098  32.7929181  82.3858930
  83.2022820  41.1613100  81.6934588  83.6359327  41.0688389  82.5417642
  83.9154401  41.1370600  81.0554604  72.1155871  42.3797099  78.8755321
  72.9096469  41.8847419  78.6737896  71.4047563  41.8514962  78.5123026
  76.9350715  44.7615194  83.2267688  76.9887738  45.3306130  83.9945404
  76.0665497  44.9317079  82.8621725  68.4238634  36.5240180  74.9515073
  67.4936222  36.4624636  75.1685036  68.5196106  36.0016133  74.1551715
  68.3424183  33.0494993  77.5393315  68.6031001  33.9640326  77.4302475
  69.1641356  32.5819436  77.6889928  69.8149109  34.4632750  84.7092140
  70.4872162  34.2550112  84.0604788  68.9878895  34.2654836  84.2697372
  84.0638370  41.2036801  84.2267473  84.2574260  42.1082611  84.4726748
  83.9638988  40.7444220  85.0606058  75.7174681  31.0894691  86.7257800
  75.0702596  31.7884641  86.6322277  76.4875696  31.5230835  87.0934049
  79.1253479  41.3543543  89.8008354  78.9738985  41.1254095  88.8838437
  79.1158158  42.3114145  89.8139699  75.8938815  38.9275456  84.7854620
  76.8230875  39.0786616  84.6123587  75.4729845  39.0159477  83.9303267
  74.6927147  42.9526121  82.5553158  74.5538233  42.5844905  83.4279096
  73.9041743  43.4673760  82.3837116  75.2875299  48.0535217  73.8978694
  75.4627055  47.5823260  74.7124317  74.6008087  48.6800983  74.1259955
  76.2432362  42.3307723  79.9441996  75.9082195  42.2908493  80.8399645
  75.7436308  41.6652439  79.4712406  70.2176606  37.7375353  85.4694577
  70.0796404  37.0055592  86.0706116  71.1281529  37.6484253  85.1878764
  79.1791554  39.6763758  70.2179055  78.5620724  38.9510586  70.1212108
  78.7108042  40.4373118  69.8746129  72.8458907  37.4495313  84.9578256
  73.5558525  36.8088505  84.9164875  72.8028215  37.7008207  85.8804437
  80.8345685  44.3862666  87.8784836  80.7758231  43.7021886  87.2115419
  81.2365204  45.1281656  87.4265462  71.5587841  34.4360530  86.7773896
  71.0225198  33.9851269  87.4295492  70.9704549  34.5706439  86.0344360
  69.8536384  51.2024580  80.6718554  70.0932982  51.8343104  81.3497573
  69.0105581  50.8512620  80.9583914  70.9690100  33.8949182  69.3400359
  70.0919566  33.7737983  68.9762606  71.4447853  33.1035260  69.0879248
  80.8363093  42.3502250  86.1098815  79.9489871  42.0128172  86.2325214
  81.4061644  41.6185281  86.3467581  62.4892240  38.6826342  79.4341867
  63.1763280  38.3688072  78.8462882  62.3340368  39.5867706  79.1609118
  67.2926962  33.5716538  83.8626890  67.2085151  32.9642208  83.1277300
  66.4709668  34.0625556  83.8636387  74.3664246  47.0103702  83.0760058
  74.2934417  47.8158674  83.5879363  73.9241639  47.2095668  82.2508080
  74.1554026  46.2475472  76.5862880  73.3721548  46.7897152  76.6801105
  74.8546771  46.7649452  76.9857121  77.4650676  32.0570102  79.2297085
  77.9619375  31.3040064  78.9098156  76.6937657  32.0934418  78.6640295
  85.3180433  37.7610467  80.8715377  85.3070309  38.6435183  80.5009310
  84.4497813  37.4082018  80.6769914  76.8262930  46.9090536  85.2318217
  77.5390902  47.5438001  85.1594119  76.3352958  47.0054402  84.4158219
  78.5480456  40.8141789  76.8035509  77.6136735  40.9343251  76.6340213
  78.7257125  39.9114256  76.5395519  74.0485644  34.1987485  78.9568770
  73.6783432  33.6458525  79.6449676  74.5444737  33.5945618  78.4043770
  81.9353008  36.6559108  77.3385543  82.4013460  37.4887100  77.2645846
  82.3860508  36.1904090  78.0430801  71.8774843  44.6584980  86.0523788
  72.5784303  45.2921463  86.2053182  71.4069958  44.9999711  85.2919427
  80.0029239  43.0002929  74.3371695  80.2789083  42.8859524  75.2465569
  79.1333738  42.6020414  74.2983868  79.9069671  29.0239695  81.3776444
  78.9932750  29.2543922  81.5458651  80.3362772  29.1078139  82.2290477
  79.6776129  37.2129587  83.8776338  79.0247579  37.4605495  83.2228791
  80.0556509  36.3993725  83.5438816  76.6383303  47.2489280  77.9804509
  76.8205697  46.4310936  78.4432261  77.4616289  47.4656973  77.5429399
  76.9725468  46.1757465  75.2419557  77.5013235  45.6649920  74.6289719
  77.2353688  45.8599996  76.1065090  75.7263702  37.9549398  90.3642375
  75.0504339  37.8543528  91.0344751  76.5491336  37.7988612  90.8278373
  67.4742561  44.1921335  82.9854891  68.0595998  43.4465023  83.1182795
  67.2767400  44.5025291  83.8691555  70.3281216  47.2272582  78.0017333
  69.6591592  47.7118710  77.5181373  70.1894086  47.4741803  78.9160712
  62.0660216  36.7626935  81.7059334  62.1044315  36.2290526  82.4996452
  61.5600509  36.2362140  81.0870311  74.4686485  49.2616326  84.5999991
  75.0204793  49.4247947  85.3649077  74.8092678  49.8520763  83.9280016
  69.4450978  31.6091475  85.2021876  69.5092305  32.4706306  84.7899274
  69.3818098  30.9965477  84.4694235  68.9203251  33.6814608  88.8494910
  69.5475289  33.2991685  89.4632435  68.0631170  33.4628810  89.2150603
  79.3197359  44.0877583  90.4548646  79.8637263  44.7007541  89.9603601
  78.7384204  44.6457162  90.9715659  65.6968793  35.4891037  74.7813265
  65.9922235  34.5801716  74.7280319  64.7956829  35.4678777  74.4594268
  77.6054872  47.2098301  81.5863674  77.4806012  46.4088041  81.0774619
  78.2633963  47.7044495  81.0977643  69.2263040  33.5647034  80.7640814
  68.5049626  34.1783001  80.6248287  70.0156296  34.1004798  80.6857460
  79.6689781  45.0107321  83.2143224  78.7220116  44.8912672  83.1421550
  80.0172554  44.1229819  83.2969485  72.0289354  30.9001460  87.0381466
  72.5523756  31.1463757  87.8007775  71.8101687  31.7321495  86.6184603
  67.4256635  33.1705135  74.9052590  67.0969341  32.2902514  74.7227696
  67.7796006  33.1152803  75.7928980  76.6736214  44.8060037  79.4147576
  76.5261176  43.8776745  79.5955146  77.4989707  44.8280128  78.9304651
  70.5398458  33.4578105  75.2728068  70.8794531  33.9864026  74.5506676
  70.9870579  33.7958511  76.0486635  80.2770336  45.6288596  80.5012449
  81.2016883  45.4231458  80.3636900  80.1085639  45.3804997  81.4101790
  73.2341899  31.8415155  84.7231136  72.8938719  31.0422968  85.1251816
  72.5280905  32.1416866  84.1507969  73.8858371  28.9264468  83.1758459
  74.7084440  28.4524946  83.0537349  74.1296434  29.7054951  83.6757145
  72.5266605  31.9552726  73.4721361  73.2474968  32.3333979  72.9685078
  71.9031909  32.6741603  73.5756339  76.6697728  32.6597875  74.4079693
  76.8861343  33.5422513  74.1068521  76.1891795  32.2684089  73.6785335
  71.4096950  35.6183588  80.9850438  71.2641530  35.9323891  81.8774719
  70.9322153  36.2368489  80.4321336  73.2693332  32.6086136  81.0331327
  73.2554901  31.7127230  80.6963625  73.9865761  32.6156800  81.6669613
  75.1219463  33.0423477  83.0784455  74.8637241  33.9640547  83.0768785
  74.5904504  32.6453911  83.7684919  65.8842612  38.1588933  83.9238099
  65.3396080  38.9348741  84.0558373  66.7621962  38.5059737  83.7657220
  72.6730228  31.4900517  76.3018897  72.7946140  30.5617163  76.5009785
  72.3832271  31.5039203  75.3897213  75.5421419  29.1755427  79.4385617
  75.5643116  29.2394760  78.4837597  75.9589478  28.3359936  79.6326123
  85.9205043  38.9110687  77.4764840  86.3636189  38.1618012  77.0783963
  85.0431553  38.9020823  77.0938572  81.0540824  45.4641028  72.9571438
  81.7491729  46.0847721  73.1758753  81.3963975  44.6136379  73.2323816
  66.6708634  37.2858829  86.8168256  65.9290370  37.4341464  87.4032886
  66.3501378  37.5467095  85.9535005  82.9532248  42.9140734  74.4858769
  83.4783572  43.2528006  73.7608089  82.8654600  41.9787749  74.3021904
  74.6152296  46.8274807  86.6148646  74.9239423  46.5823954  87.4871345
  75.4127778  47.0321446  86.1267516  74.6372908  48.9812717  78.8454022
  74.1977899  48.4889096  79.5386879  75.3881025  48.4385685  78.6046098
  67.1165247  45.1724258  78.8478650  67.9423267  44.8728030  78.4677294
  66.7659299  44.4031880  79.2968439  72.0846780  44.5250726  80.9176324
  71.4626790  43.8621431  80.6178552  72.7551647  44.5511858  80.2349972
  65.3173852  43.0910584  79.8067584  64.4805761  42.6632759  79.6251585
  65.2897498  43.2843028  80.7438375  72.1571308  33.0032514  90.5108830
  72.2059463  33.8794637  90.1286600  72.6993822  32.4609907  89.9380473
  82.6426154  43.5473637  89.7909967  81.8521697  43.5297776  89.2514466
  82.4059508  44.0861931  90.5459004  82.7624029  40.3966104  87.1042696
  82.8122034  40.2316111  88.0458218  82.6537952  39.5293363  86.7140576
  71.6460287  43.0754649  74.3934785  71.7948408  43.7590114  73.7401457
  72.4526731  43.0559739  74.9084240  80.0527791  36.3797032  88.4202002
  80.9537654  36.2403496  88.1286000  80.1275766  36.5451486  89.3600180
  74.3870596  33.7563886  87.2655189  73.5173906  34.0497452  86.9937777
  74.6230077  34.3404331  87.9862452  84.2642225  42.8163045  87.3484717
  83.9727034  43.1793026  88.1848178  83.6514357  42.1030053  87.1698049
  85.4637908  40.3815925  79.8687287  86.2984799  40.8205729  80.0324848
  85.5997037  39.9054578  79.0495533  82.5129414  37.9395660  85.8164775
  82.9883535  38.1323306  85.0083627  81.5894979  37.9954846  85.5708159
  69.4012920  39.1019827  75.3995853  69.1558962  38.1982157  75.5976064
  69.5708835  39.1036977  74.4575331  77.0909630  29.9743503  84.7820609
  77.6091574  30.7104530  84.4567098  76.7364763  30.2807497  85.6167368
  68.6708568  34.8348185  72.8982015  67.9777813  34.9092539  72.2422051
  68.4260320  34.0708528  73.4203532  77.3422224  26.3943786  80.3021506
  77.6223978  25.7266975  80.9281932  78.1272831  26.5872881  79.7896169
  75.1455693  45.5702780  71.8646532  74.5729660  46.1892967  71.4117004
  75.7188487  46.1202141  72.3986454  81.2131083  34.8161420  84.0493081
  82.1648506  34.9159517  84.0705305  81.0434533  34.0239688  84.5591165
  79.2345462  31.9017003  84.2352482  78.6395394  32.1822016  83.5398970
  78.9495159  32.3910904  85.0069223  78.3652953  45.8539930  72.9955114
  79.2983626  45.7885492  73.1987990  78.2776165  46.6896197  72.5369647
  80.9940969  45.1705800  69.9559062  80.9154601  44.8365664  70.8494820
  81.8150636  45.6627568  69.9550534  83.6919161  38.0367540  83.1635380
  83.6595481  37.0983540  83.3495064  84.3019784  38.1151576  82.4301205
  75.5302491  36.9063593  69.2062584  76.4761596  36.7769801  69.2751002
  75.1516736  36.1678254  69.6832013  83.8413649  34.8278583  83.2093664
  83.3252698  34.0437040  83.0223592  84.7253598  34.4997300  83.3740183
  81.5024376  28.5719599  79.1689476  81.3049197  28.2634687  80.0532808
  82.1124081  29.2981237  79.2987406  89.5095710  39.0983546  82.3041417
  90.2399099  38.8368834  82.8649121  88.9002656  38.3612268  82.3443485
  87.5911007  37.2391409  82.9015868  86.8644171  37.1047374  82.2932360
  87.1758294  37.5468238  83.7072586  75.4141184  40.9581339  90.6663241
  76.3344193  41.1359938  90.8603288  75.3790767  40.0137384  90.5142941
  73.7145409  34.8313569  69.1417470  72.8076864  34.5346682  69.2180183
  73.9921390  34.5343387  68.2751756  64.6323349  36.1519932  79.5916516
  64.3126133  35.2985240  79.2990890  64.0856777  36.3668510  80.3474483
  68.4103256  38.8682373  83.3086023  68.6289266  39.7999481  83.3274056
  68.8229030  38.5090348  84.0940826  75.3307474  29.3750459  75.2961711
  74.5208203  29.0297544  75.6716957  76.0191891  29.0658002  75.8849323
  77.2598023  28.4528505  76.9186008  77.8129061  28.8723959  77.5776031
  77.4968109  27.5264254  76.9608964  73.2831122  34.4415579  92.6988771
  73.1827849  35.3909936  92.6300863  73.0652664  34.1133818  91.8264842
  72.4844193  31.6900504  69.2829449  73.3463357  32.0155402  69.5425266
  72.6694537  30.9032000  68.7702515  64.5011609  39.7722844  81.5609638
  63.8075080  39.3576797  81.0479592  65.2484600  39.8143380  80.9643057
  80.6376830  30.5629031  76.4264672  80.0575499  31.2213835  76.0442724
  80.3712762  29.7406375  76.0152089  79.0880396  29.9634088  78.6285992
  79.5880174  30.0750623  77.8200311  79.7316004  29.6595141  79.2686801
  73.1462392  37.8712718  91.5153833  72.6629474  38.6713078  91.7217722
  73.2323331  37.8820663  90.5621277  66.4148351  39.7041098  79.4375653
  66.3919040  39.8028785  78.4857536  66.7248988  40.5506248  79.7592819
  69.0735729  41.7617253  83.5522267  70.0278983  41.7301195  83.4852198
  68.8748253  41.3007876  84.3672493  69.6635111  40.3318369  86.1193065
  70.4828000  40.8262447  86.1427902  69.9371919  39.4150337  86.0910632
  79.4201708  32.7229121  75.4821020  78.5327563  33.0078772  75.2641215
  79.8355697  32.5622884  74.6348297  82.7716244  32.7475642  79.1975359
  83.5476634  33.2372094  79.4699976  82.0464378  33.1733696  79.6547229
  85.2088802  33.4603261  80.2549300  85.8033293  33.2198997  79.5442608
  85.2815386  32.7410392  80.8822836  67.4285958  47.3036872  80.5692465
  67.2940426  46.5437273  80.0030463  67.0118020  48.0277772  80.1021254
  78.5644921  42.4873796  69.5769040  79.2680771  42.6923798  70.1926696
  77.8407570  43.0550558  69.8418124  79.3942731  38.2383657  75.6971310
  79.3377933  38.6952208  74.8578943  79.9471074  37.4774341  75.5194153
  83.2047537  34.0273389  76.5221430  82.9484472  33.6270024  77.3529637
  82.5800405  34.7417183  76.3971569  87.5159875  36.7669462  79.0292721
  86.9559433  36.8362651  79.8024283  86.9103379  36.5910447  78.3092217
  70.5855084  48.2006189  80.7810907  70.4687468  49.1451622  80.6789598
  69.7647530  47.8979751  81.1696707  80.4731619  42.9256325  71.6267500
  81.3077222  42.4937523  71.4444975  80.3115961  42.7538339  72.5544395
  80.1277511  39.4288438  72.9923839  80.0726314  39.2632710  72.0512284
  79.5023566  40.1364471  73.1486029  64.9170026  34.6656503  86.8185262
  65.5628889  34.1555456  87.3072487  64.7087177  35.4025184  87.3928687
  77.4423418  41.7337350  92.3177402  78.3114578  41.9078002  91.9564037
  76.9630169  42.5531767  92.1953132  73.4373636  28.9296547  72.5709158
  73.4252306  29.8738387  72.7277429  74.3297058  28.7466693  72.2768619
  71.6109598  48.8534451  83.9966836  72.5136845  48.8858061  84.3133331
  71.3846968  47.9234902  84.0113172  73.3663200  47.6065438  80.6576914
  72.4158831  47.6067299  80.5441287  73.6695686  46.8598172  80.1412949
  77.2525756  25.5239324  76.8255095  76.4858151  24.9697810  76.9711777
  77.6636461  25.5961193  77.6869246  69.2567517  31.8124120  90.9160276
  70.1198978  31.4560924  91.1263600  68.6832927  31.4738014  91.6035680
  89.1015894  53.4425976  81.7222677  89.7394304  53.3232723  81.0186017
  88.9836736  54.3906820  81.7810629  85.9105600  53.3953404  81.6584202
  85.5724111  53.2794469  80.7704736  86.7795368  52.9944569  81.6385208
  81.7692416  55.2488880  77.6481093  81.2057281  55.1578817  76.8797380
  81.6544811  54.4288785  78.1283585  86.3925383  54.5488256  87.6170407
  86.3814024  54.1541054  86.7450911  86.5546022  53.8154328  88.2104179
  79.3156848  56.7440072  80.4865313  80.1078139  56.4030897  80.0711612
  79.5553498  56.8535047  81.4067466  87.3491974  58.9159848  72.9595557
  86.6979954  59.5013929  72.5729571  88.1436337  59.4466043  73.0190595
  81.2747601  56.0048985  73.3582692  82.0478477  55.4577972  73.2195568
  81.6273000  56.8693235  73.5697153  83.1132644  57.3325368  86.5649591
  82.8222510  58.2370998  86.4496257  83.7489628  57.3741895  87.2793661
  84.0388851  54.7102216  83.1550951  84.6352423  54.4858238  82.4407914
  84.0963822  53.9686962  83.7576399  83.6113879  52.1641651  70.9901142
  83.8639400  51.6423173  70.2284605  82.6738438  52.0007797  71.0927825
  88.6557162  51.1677430  78.7975885  89.4420251  50.7496853  78.4466302
  88.9195866  52.0723522  78.9657533  88.8267239  56.6050280  73.4964542
  88.1913072  56.6784907  74.2085446  88.4964646  57.1943879  72.8183621
  94.0565589  51.1052663  79.7008863  94.7890761  50.5351880  79.9346693
  93.3004945  50.7174263  80.1415369  83.3310168  54.0669757  73.1925517
  83.2146426  53.3914661  73.8606601  83.4412428  53.5802131  72.3757670
  85.6741709  53.5279904  76.8972206  85.3099916  53.0010525  77.6085127
  86.5308825  53.1378374  76.7238691  91.5791010  44.8174237  84.1603472
  91.2474334  45.6869648  83.9364687  90.9836623  44.5010521  84.8397502
  85.3147196  48.5569804  71.8933554  85.4821598  49.4250041  72.2604025
  85.1244365  48.7197086  70.9694844  88.0722529  57.0186783  83.5599385
  87.7723252  57.9211822  83.4515192  87.7273589  56.7518966  84.4120538
  81.5235011  53.4700580  79.5936089  80.5985507  53.3376794  79.8013781
  81.7719424  54.2494799  80.0906032  91.4719673  49.5369323  81.2396822
  90.5636550  49.4684732  80.9455583  91.4207269  50.0141268  82.0678648
  85.2936417  51.0127462  72.8780221  85.1736042  51.4584512  73.7165702
  84.5989005  51.3612779  72.3193759  78.8843822  53.1133853  80.4279878
  79.0136203  53.3668332  81.3419290  78.2041273  53.7061561  80.1084533
  83.0543309  63.7831103  76.5270352  82.9767339  64.7338929  76.6058833
  82.4504952  63.4376976  77.1845279  85.5460539  50.9558969  89.1831719
  84.7693873  51.5152889  89.1734584  86.1851102  51.4415752  89.7046589
  93.3381319  47.7385762  83.0174696  92.6955700  48.0318295  82.3714491
  92.8336248  47.6238682  83.8227893  90.9921483  51.4848935  73.7060555
  91.9039339  51.7176322  73.5308253  90.4831130  52.0685979  73.1435634
  83.8006911  53.7644422  88.7449686  84.5421595  54.3029466  88.4684510
  83.0943896  54.3910711  88.9021238  89.2762251  55.9073563  87.3421848
  89.6845607  55.4655973  86.5976480  88.5539512  55.3326190  87.5956041
  85.6293321  50.8446169  84.7155405  86.4754516  51.2685583  84.8590054
  85.5691958  50.1879794  85.4093968  89.5991065  56.4674753  81.0974137
  88.9699928  56.6320467  80.3950205  89.2116727  56.8816363  81.8685101
  93.4780297  57.4029191  78.4518500  92.7931335  57.7828093  77.9015534
  93.5624146  58.0124518  79.1850448  88.7792766  48.5050538  86.3736578
  88.5353698  49.2592598  85.8370854  89.0552697  48.8835885  87.2083826
  90.7331229  55.0489150  85.0513844  90.9448124  55.6920910  84.3748225
  90.6860977  54.2151467  84.5835774  88.3357458  47.6606971  81.9550416
  87.4741937  47.9588224  82.2467154  88.3619892  47.8777370  81.0231449
  85.1519027  56.2049161  78.3624222  85.6157373  56.4836864  77.5728844
  84.8875825  55.3032606  78.1797313  82.0443108  55.7520643  81.3003985
  82.6144465  56.1807911  80.6621470  82.6351220  55.4703228  81.9988171
  84.0887913  52.3272314  75.1713787  84.7911957  52.7793357  75.6387713
  83.7568542  51.6856133  75.7993680  82.5368275  50.9184070  89.5464996
  81.9066935  51.6000351  89.7800393  82.4304363  50.8067152  88.6018135
  77.8313247  50.5855866  80.4730921  77.0412301  50.8413395  79.9971031
  78.3224495  51.4004204  80.5782961  91.8477057  57.9261106  83.2236201
  92.6694500  57.5241293  82.9418883  91.8439460  57.8229340  84.1752317
  79.7827993  50.9500446  77.4314397  78.9859156  51.0619140  77.9497893
  79.5553585  51.2887098  76.5655288  85.6133660  57.4745149  85.3796912
  85.6778093  57.9365556  86.2155084  84.9044584  56.8442514  85.5079222
  76.1150950  50.8386357  82.9045911  76.3658989  51.7233367  83.1703487
  76.6510499  50.6590958  82.1321003  99.9383050  54.2699854  79.5721173
  99.1846758  53.7007252  79.4165177 100.0730591  54.2362519  80.5191808
  85.3281678  59.1413256  75.2475892  85.1927353  59.9864792  75.6760740
  85.8691490  59.3432534  74.4841826  81.8149017  45.2204836  91.9090247
  81.4215963  44.6671035  92.5837892  82.6315158  45.5315415  92.2996765
  78.7811075  56.6588694  75.8203817  79.2935596  57.4531945  75.9709382
  79.4333788  55.9614985  75.7537419  80.5905960  59.7754451  77.9026570
  80.7672588  60.6972415  77.7147554  81.3862793  59.4612870  78.3320950
  84.7316978  46.6362715  89.5010504  85.4726692  47.2369868  89.4214966
  84.9634901  45.8940353  88.9428547  79.8758316  51.8219083  87.7788734
  79.7611832  50.9204340  88.0795833  79.0202834  52.0682779  87.4273550
  86.9550154  59.7636823  89.3776234  86.5114008  58.9773201  89.0597139
  87.6167368  59.9515973  88.7120125  81.7137275  61.2932624  83.9036913
  82.2644700  61.1649688  83.1313907  80.8748751  61.5927514  83.5531806
  89.0531392  60.0439623  87.4057636  89.0349868  60.8648504  86.9137905
  89.9751312  59.9193698  87.6307777  85.5104446  57.5583752  88.2481144
  86.0432783  56.7972040  88.0180452  84.9818528  57.2657404  88.9905298
  88.6774141  42.6643818  83.7774786  88.3338411  43.5545460  83.7013896
  89.0453104  42.4745476  82.9144371  76.7459992  54.9877349  76.5963388
  77.5835214  55.3974357  76.3797096  76.9238260  54.0476791  76.5663582
  88.6424424  52.6552429  72.2847221  88.1271048  53.4257034  72.5235608
  88.3701733  51.9817566  72.9080282  86.2271535  47.5002130  77.3432459
  85.3713131  47.1108981  77.1638098  86.6398487  47.5794091  76.4832245
  87.7570682  45.0348473  81.7424019  87.2535477  44.9978609  80.9291824
  88.0501289  45.9441216  81.8020676  84.0013568  45.1187203  80.7490201
  84.8666564  44.9230012  80.3896090  84.0691077  44.8897555  81.6759557
  93.6158698  55.4084784  74.2200394  92.8388141  55.0695944  73.7755556
  94.2950179  55.4137407  73.5455359  88.4310727  50.5279521  74.1107002
  88.1260863  50.8425671  74.9617145  89.3841169  50.6060941  74.1534335
  86.8757159  56.6869745  75.7599956  86.3478521  55.9522504  75.4473193
  86.3744662  57.4644421  75.5139924  91.8550005  54.8818765  80.8767002
  91.1973680  55.5718027  80.9647131  92.6590404  55.2715197  81.2200989
  81.6075887  47.3489411  78.1206567  82.1819639  47.1264593  77.3879760
  82.1946869  47.4178106  78.8735169  90.6655464  53.2363138  78.9270944
  91.1787346  53.8693130  79.4292654  91.3156688  52.6364333  78.5614304
  81.9345474  49.3793872  72.1402453  81.0982786  49.7168559  72.4611727
  81.7950243  49.2442852  71.2029590  83.9098554  44.2230660  76.8481637
  83.2562967  43.9079677  76.2238252  83.8679029  43.6006400  77.5741460
  85.0209759  54.5049955  68.7634929  84.1136821  54.2739208  68.9626078
  85.5180791  53.7087574  68.9508911  87.9277838  63.2147462  71.6831615
  87.2539537  63.5179159  72.2916573  88.3143660  64.0176543  71.3337072
  87.1436295  50.7112594  81.1729285  86.2258856  50.9327541  81.0150973
  87.5596438  50.7858904  80.3140992  87.9271343  52.1104009  76.3031965
  88.6743162  52.6225406  75.9939087  88.1962932  51.7888062  77.1636358
  86.1997993  54.6062550  73.2858919  85.2909212  54.3221583  73.3831389
  86.2293077  55.0261628  72.4262226  91.4317260  58.2169139  77.0550087
  90.9779587  57.3760049  77.1115277  90.8011227  58.8530538  77.3924867
  90.3750180  49.1461125  78.2850754  89.6372937  48.6338512  78.6160997
  90.6276953  48.7061507  77.4734031  89.8750199  60.0545636  77.9899905
  90.1673174  60.6150693  77.2712270  90.3848820  60.3474197  78.7453064
  90.4761807  41.9237377  78.8792523  90.7820684  41.0634741  78.5918438
  91.2014412  42.5154998  78.6791517  76.7686163  52.3268064  77.2674121
  76.5710563  51.7337425  76.5425188  76.2132827  52.0220274  77.9850060
  84.7482887  52.2191171  79.3868714  84.8031497  51.2665007  79.3111191
  83.9374089  52.3750610  79.8710013  85.8974081  56.1471294  70.6246998
  85.4593510  55.4307153  70.1652635  86.6384521  56.3747408  70.0632089
  82.6875247  50.8368230  77.1459093  81.8743112  51.1362401  77.5524285
  83.1834241  50.4423919  77.8633576  84.8383825  60.8325987  79.0793358
  84.7960003  61.0586833  78.1501890  85.7546523  60.5989362  79.2279159
  88.2849458  51.3010055  85.9773987  88.6398846  51.5281528  86.8368453
  88.9321590  51.6328432  85.3551242  94.0147195  54.4228491  76.6823316
  93.8765094  54.6130087  75.7544505  93.6583414  55.1847873  77.1391367
  82.1789321  48.4086586  82.7620328  82.8188701  48.2675345  82.0643292
  81.3466852  48.1221099  82.3858930  94.0416575  56.4905018  81.6934588
  94.4753082  56.3980307  82.5417642  94.7548156  56.4662518  81.0554604
  82.9549625  57.7089016  78.8755321  83.7490224  57.2139336  78.6737896
  82.2441318  57.1806879  78.5123026  87.7744470  60.0907112  83.2267688
  87.8281492  60.6598048  83.9945404  86.9059251  60.2608997  82.8621725
  79.2632389  51.8532098  74.9515073  78.3329977  51.7916553  75.1685036
  79.3589861  51.3308051  74.1551715  79.1817938  48.3786911  77.5393315
  79.4424755  49.2932244  77.4302475  80.0035110  47.9111353  77.6889928
  80.6542863  49.7924668  84.7092140  81.3265917  49.5842030  84.0604788
  79.8272650  49.5946754  84.2697372  94.9032125  56.5328718  84.2267473
  95.0968015  57.4374529  84.4726748  94.8032743  56.0736137  85.0606058
  86.5568435  46.4186609  86.7257800  85.9096350  47.1176559  86.6322277
  87.3269451  46.8522753  87.0934049  89.9647233  56.6835461  89.8008354
  89.8132740  56.4546013  88.8838437  89.9551913  57.6406062  89.8139699
  86.7332570  54.2567374  84.7854620  87.6624630  54.4078533  84.6123587
  86.3123600  54.3451395  83.9303267  85.5320901  58.2818038  82.5553158
  85.3931987  57.9136823  83.4279096  84.7435498  58.7965678  82.3837116
  86.1269053  63.3827135  73.8978694  86.3020809  62.9115178  74.7124317
  85.4401841  64.0092901  74.1259955  87.0826117  57.6599641  79.9441996
  86.7475949  57.6200411  80.8399645  86.5830062  56.9944357  79.4712406
  81.0570360  53.0667271  85.4694577  80.9190158  52.3347510  86.0706116
  81.9675284  52.9776171  85.1878764  90.0185308  55.0055675  70.2179055
  89.4014479  54.2802503  70.1212108  89.5501797  55.7665036  69.8746129
  83.6852661  52.7787230  84.9578256  84.3952280  52.1380422  84.9164875
  83.6421969  53.0300125  85.8804437  91.6739440  59.7154584  87.8784836
  91.6151986  59.0313804  87.2115419  92.0758958  60.4573574  87.4265462
  82.3981595  49.7652448  86.7773896  81.8618952  49.3143187  87.4295492
  81.8098304  49.8998357  86.0344360  80.6930139  66.5316497  80.6718554
  80.9326737  67.1635022  81.3497573  79.8499335  66.1804537  80.9583914
  81.8083854  49.2241100  69.3400359  80.9313320  49.1029900  68.9762606
  82.2841607  48.4327178  69.0879248  91.6756847  57.6794168  86.1098815
  90.7883626  57.3420089  86.2325214  92.2455398  56.9477199  86.3467581
  73.3285994  54.0118259  79.4341867  74.0157034  53.6979989  78.8462882
  73.1734123  54.9159624  79.1609118  78.1320716  48.9008456  83.8626890
  78.0478905  48.2934125  83.1277300  77.3103423  49.3917474  83.8636387
  85.2058000  62.3395620  83.0760058  85.1328172  63.1450591  83.5879363
  84.7635394  62.5387586  82.2508080  84.9947780  61.5767390  76.5862880
  84.2115302  62.1189070  76.6801105  85.6940525  62.0941370  76.9857121
  88.3044430  47.3862019  79.2297085  88.8013130  46.6331982  78.9098156
  87.5331412  47.4226336  78.6640295  96.1574188  53.0902385  80.8715377
  96.1464064  53.9727100  80.5009310  95.2891567  52.7373936  80.6769914
  87.6656684  62.2382454  85.2318217  88.3784656  62.8729919  85.1594119
  87.1746713  62.3346320  84.4158219  89.3874211  56.1433707  76.8035509
  88.4530490  56.2635169  76.6340213  89.5650879  55.2406173  76.5395519
  84.8879399  49.5279402  78.9568770  84.5177186  48.9750443  79.6449676
  85.3838491  48.9237536  78.4043770  92.7746762  51.9851026  77.3385543
  93.2407214  52.8179017  77.2645846  93.2254263  51.5196007  78.0430801
  82.7168598  59.9876897  86.0523788  83.4178057  60.6213380  86.2053182
  82.2463713  60.3291629  85.2919427  90.8422993  58.3294847  74.3371695
  91.1182837  58.2151442  75.2465569  89.9727492  57.9312332  74.2983868
  90.7463425  44.3531613  81.3776444  89.8326505  44.5835840  81.5458651
  91.1756526  44.4370057  82.2290477  90.5169884  52.5421505  83.8776338
  89.8641334  52.7897412  83.2228791  90.8950263  51.7285643  83.5438816
  87.4777057  62.5781198  77.9804509  87.6599452  61.7602854  78.4432261
  88.3010043  62.7948890  77.5429399  87.8119223  61.5049383  75.2419557
  88.3406989  60.9941838  74.6289719  88.0747442  61.1891913  76.1065090
  86.5657457  53.2841316  90.3642375  85.8898094  53.1835445  91.0344751
  87.3885090  53.1280530  90.8278373  78.3136316  59.5213252  82.9854891
  78.8989752  58.7756940  83.1182795  78.1161154  59.8317209  83.8691555
  81.1674971  62.5564500  78.0017333  80.4985346  63.0410627  77.5181373
  81.0287841  62.8033720  78.9160712  72.9053970  52.0918853  81.7059334
  72.9438070  51.5582443  82.4996452  72.3994263  51.5654058  81.0870311
  85.3080239  64.5908243  84.5999991  85.8598547  64.7539865  85.3649077
  85.6486433  65.1812681  83.9280016  80.2844733  46.9383393  85.2021876
  80.3486059  47.7998224  84.7899274  80.2211853  46.3257395  84.4694235
  79.7597005  49.0106526  88.8494910  80.3869044  48.6283603  89.4632435
  78.9024924  48.7920728  89.2150603  90.1591114  59.4169501  90.4548646
  90.7031018  60.0299459  89.9603601  89.5777959  59.9749079  90.9715659
  76.5362548  50.8182955  74.7813265  76.8315989  49.9093633  74.7280319
  75.6350584  50.7970694  74.4594268  88.4448627  62.5390219  81.5863674
  88.3199766  61.7379959  81.0774619  89.1027718  63.0336412  81.0977643
  80.0656795  48.8938951  80.7640814  79.3443381  49.5074919  80.6248287
  80.8550051  49.4296716  80.6857460  90.5083535  60.3399239  83.2143224
  89.5613871  60.2204590  83.1421550  90.8566308  59.4521737  83.2969485
  82.8683108  46.2293378  87.0381466  83.3917510  46.4755674  87.8007775
  82.6495442  47.0613413  86.6184603  78.2650390  48.4997052  74.9052590
  77.9363096  47.6194431  74.7227696  78.6189760  48.4444721  75.7928980
  87.5129968  60.1351955  79.4147576  87.3654931  59.2068663  79.5955146
  88.3383462  60.1572046  78.9304651  81.3792213  48.7870022  75.2728068
  81.7188285  49.3155943  74.5506676  81.8264333  49.1250428  76.0486635
  91.1164090  60.9580514  80.5012449  92.0410638  60.7523375  80.3636900
  90.9479394  60.7096915  81.4101790  84.0735653  47.1707073  84.7231136
  83.7332474  46.3714886  85.1251816  83.3674660  47.4708784  84.1507969
  84.7252125  44.2556385  83.1758459  85.5478195  43.7816864  83.0537349
  84.9690189  45.0346869  83.6757145  83.3660360  47.2844644  73.4721361
  84.0868722  47.6625897  72.9685078  82.7425664  48.0033521  73.5756339
  87.5091483  47.9889793  74.4079693  87.7255097  48.8714431  74.1068521
  87.0285550  47.5976006  73.6785335  82.2490704  50.9475506  80.9850438
  82.1035285  51.2615809  81.8774719  81.7715908  51.5660406  80.4321336
  84.1087087  47.9378054  81.0331327  84.0948656  47.0419147  80.6963625
  84.8259515  47.9448718  81.6669613  85.9613218  48.3715394  83.0784455
  85.7030995  49.2932465  83.0768785  85.4298258  47.9745829  83.7684919
  90.9059406  61.4766181  75.8574540  91.0796284  60.9112604  75.1048393
  91.3988298  62.2767076  75.6754030  76.7236366  53.4880850  83.9238099
  76.1789834  54.2640658  84.0558373  77.6015716  53.8351655  83.7657220
  83.5123983  46.8192434  76.3018897  83.6339894  45.8909080  76.5009785
  83.2226025  46.8331120  75.3897213  86.3815173  44.5047345  79.4385617
  86.4036870  44.5686678  78.4837597  86.7983232  43.6651853  79.6326123
  96.7598798  54.2402604  77.4764840  97.2029944  53.4909929  77.0783963
  95.8825308  54.2312741  77.0938572  91.8934579  60.7932946  72.9571438
  92.5885484  61.4139638  73.1758753  92.2357729  59.9428297  73.2323816
  77.5102388  52.6150747  86.8168256  76.7684124  52.7633382  87.4032886
  77.1895132  52.8759012  85.9535005  93.7926002  58.2432651  74.4858769
  94.3177326  58.5819924  73.7608089  93.7048355  57.3079667  74.3021904
  85.4546051  62.1566725  86.6148646  85.7633177  61.9115872  87.4871345
  86.2521533  62.3613363  86.1267516  85.4766663  64.3104635  78.8454022
  85.0371653  63.8181013  79.5386879  86.2274780  63.7677602  78.6046098
  77.9559002  60.5016175  78.8478650  78.7817022  60.2019947  78.4677294
  77.6053054  59.7323798  79.2968439  82.9240535  59.8542644  80.9176324
  82.3020544  59.1913349  80.6178552  83.5945402  59.8803776  80.2349972
  76.1567607  58.4202502  79.8067584  75.3199515  57.9924676  79.6251585
  76.1291252  58.6134945  80.7438375  82.9965062  48.3324432  90.5108830
  83.0453218  49.2086554  90.1286600  83.5387577  47.7901825  89.9380473
  93.4819908  58.8765555  89.7909967  92.6915452  58.8589694  89.2514466
  93.2453263  59.4153849  90.5459004  93.6017783  55.7258021  87.1042696
  93.6515788  55.5608029  88.0458218  93.4931706  54.8585280  86.7140576
  82.4854042  58.4046567  74.3934785  82.6342162  59.0882031  73.7401457
  83.2920485  58.3851657  74.9084240  90.8921546  51.7088949  88.4202002
  91.7931408  51.5695414  88.1286000  90.9669520  51.8743404  89.3600180
  85.2264351  49.0855804  87.2655189  84.3567660  49.3789370  86.9937777
  85.4623831  49.6696249  87.9862452  95.1035980  58.1454963  87.3484717
  94.8120788  58.5084943  88.1848178  94.4908111  57.4321971  87.1698049
  96.3031662  55.7107843  79.8687287  97.1378554  56.1497647  80.0324848
  96.4390791  55.2346496  79.0495533  93.3523168  53.2687577  85.8164775
  93.8277290  53.4615224  85.0083627  92.4288734  53.3246763  85.5708159
  80.2406675  54.4311745  75.3995853  79.9952717  53.5274075  75.5976064
  80.4102589  54.4328895  74.4575331  87.9303385  45.3035421  84.7820609
  88.4485329  46.0396448  84.4567098  87.5758517  45.6099414  85.6167368
  79.5102322  50.1640102  72.8982015  78.8171567  50.2384457  72.2422051
  79.2654074  49.4000446  73.4203532  88.1815979  41.7235704  80.3021506
  88.4617733  41.0558893  80.9281932  88.9666586  41.9164799  79.7896169
  85.9849447  60.8994697  71.8646532  85.4123414  61.5184885  71.4117004
  86.5582241  61.4494059  72.3986454  92.0524837  50.1453338  84.0493081
  93.0042260  50.2451435  84.0705305  91.8828288  49.3531606  84.5591165
  90.0739217  47.2308921  84.2352482  89.4789149  47.5113933  83.5398970
  89.7888913  47.7202822  85.0069223  89.2046707  61.1831848  72.9955114
  90.1377380  61.1177409  73.1987990  89.1169920  62.0188114  72.5369647
  91.8334724  60.4997718  69.9559062  91.7548355  60.1657581  70.8494820
  92.6544391  60.9919486  69.9550534  94.5312915  53.3659457  83.1635380
  94.4989235  52.4275458  83.3495064  95.1413539  53.4443494  82.4301205
  86.3696246  52.2355510  69.2062584  87.3155351  52.1061718  69.2751002
  85.9910491  51.4970172  69.6832013  94.6807403  50.1570501  83.2093664
  94.1646452  49.3728957  83.0223592  95.5647352  49.8289217  83.3740183
  92.3418130  43.9011516  79.1689476  92.1442952  43.5926604  80.0532808
  92.9517836  44.6273155  79.2987406 100.3489465  54.4275464  82.3041417
 101.0792853  54.1660752  82.8649121  99.7396410  53.6904186  82.3443485
  98.4304762  52.5683327  82.9015868  97.7037926  52.4339292  82.2932360
  98.0152049  52.8760155  83.7072586  86.2534938  56.2873256  90.6663241
  87.1737948  56.4651855  90.8603288  86.2184521  55.3429302  90.5142941
  84.5539163  50.1605487  69.1417470  83.6470618  49.8638599  69.2180183
  84.8315144  49.8635305  68.2751756  75.4717103  51.4811850  79.5916516
  75.1519888  50.6277158  79.2990890  74.9250532  51.6960428  80.3474483
  79.2497011  54.1974291  83.3086023  79.4683021  55.1291399  83.3274056
  79.6622785  53.8382265  84.0940826  86.1701229  44.7042376  75.2961711
  85.3601957  44.3589461  75.6716957  86.8585646  44.3949920  75.8849323
  88.0991777  43.7820423  76.9186008  88.6522816  44.2015877  77.5776031
  88.3361863  42.8556171  76.9608964  84.1224876  49.7707497  92.6988771
  84.0221603  50.7201854  92.6300863  83.9046418  49.4425736  91.8264842
  83.3237948  47.0192422  69.2829449  84.1857112  47.3447320  69.5425266
  83.5088292  46.2323918  68.7702515  75.3405363  55.1014761  81.5609638
  74.6468835  54.6868714  81.0479592  76.0878354  55.1435298  80.9643057
  91.4770584  45.8920948  76.4264672  90.8969253  46.5505752  76.0442724
  91.2106517  45.0698293  76.0152089  89.9274150  45.2926006  78.6285992
  90.4273929  45.4042540  77.8200311  90.5709758  44.9887059  79.2686801
  83.9856146  53.2004636  91.5153833  83.5023228  54.0004996  91.7217722
  84.0717085  53.2112580  90.5621277  77.2542106  55.0333015  79.4375653
  77.2312794  55.1320703  78.4857536  77.5642742  55.8798166  79.7592819
  79.9129484  57.0909170  83.5522267  80.8672737  57.0593113  83.4852198
  79.7142007  56.6299794  84.3672493  80.5028866  55.6610286  86.1193065
  81.3221755  56.1554365  86.1427902  80.7765674  54.7442254  86.0910632
  90.2595462  48.0521039  75.4821020  89.3721317  48.3370689  75.2641215
  90.6749451  47.8914802  74.6348297  93.6109998  48.0767560  79.1975359
  94.3870388  48.5664012  79.4699976  92.8858132  48.5025614  79.6547229
  96.0482557  48.7895179  80.2549300  96.6427048  48.5490915  79.5442608
  96.1209141  48.0702309  80.8822836  78.2679713  62.6328790  80.5692465
  78.1334181  61.8729191  80.0030463  77.8511775  63.3569690  80.1021254
  89.4038676  57.8165713  69.5769040  90.1074526  58.0215716  70.1926696
  88.6801324  58.3842475  69.8418124  90.2336486  53.5675575  75.6971310
  90.1771687  54.0244126  74.8578943  90.7864828  52.8066259  75.5194153
  94.0441292  49.3565306  76.5221430  93.7878226  48.9561942  77.3529637
  93.4194160  50.0709100  76.3971569  98.3553630  52.0961380  79.0292721
  97.7953188  52.1654569  79.8024283  97.7497133  51.9202364  78.3092217
  81.4248838  63.5298107  80.7810907  81.3081223  64.4743539  80.6789598
  80.6041285  63.2271668  81.1696707  91.3125373  58.2548242  71.6267500
  92.1470977  57.8229441  71.4444975  91.1509716  58.0830256  72.5544395
  90.9671265  54.7580356  72.9923839  90.9120069  54.5924627  72.0512284
  90.3417320  55.4656389  73.1486029  75.7563780  49.9948420  86.8185262
  76.4022644  49.4847374  87.3072487  75.5480931  50.7317102  87.3928687
  88.2817172  57.0629268  92.3177402  89.1508332  57.2369920  91.9564037
  87.8023924  57.8823684  92.1953132  84.2767391  44.2588465  72.5709158
  84.2646060  45.2030305  72.7277429  85.1690813  44.0758610  72.2768619
  82.4503353  64.1826369  83.9966836  83.3530599  64.2149979  84.3133331
  82.2240723  63.2526820  84.0113172  84.2056955  62.9357355  80.6576914
  83.2552586  62.9359217  80.5441287  84.5089441  62.1890090  80.1412949
  88.0919510  40.8531241  76.8255095  87.3251906  40.2989728  76.9711777
  88.5030215  40.9253110  77.6869246  80.0961271  47.1416037  90.9160276
  80.9592733  46.7852842  91.1263600  79.5226682  46.8029932  91.6035680
  99.9409648  68.7717894  81.7222677 100.5788058  68.6524641  81.0186017
  99.8230491  69.7198738  81.7810629  96.7499354  68.7245322  81.6584202
  96.4117866  68.6086386  80.7704736  97.6189123  68.3236487  81.6385208
  92.6086170  70.5780798  77.6481093  92.0451035  70.4870735  76.8797380
  92.4938565  69.7580703  78.1283585  97.2319137  69.8780173  87.6170407
  97.2207778  69.4832972  86.7450911  97.3939777  69.1446246  88.2104179
  90.1550602  72.0731990  80.4865313  90.9471894  71.7322814  80.0711612
  90.3947252  72.1826965  81.4067466  98.1885729  74.2451766  72.9595557
  97.5373709  74.8305846  72.5729571  98.9830092  74.7757961  73.0190595
  92.1141356  71.3340903  73.3582692  92.8872232  70.7869890  73.2195568
  92.4666755  72.1985152  73.5697153  93.9526399  72.6617285  86.5649591
  93.6616264  73.5662916  86.4496257  94.5883383  72.7033813  87.2793661
  94.8782605  70.0394134  83.1550951  95.4746178  69.8150156  82.4407914
  94.9357577  69.2978879  83.7576399  94.4507634  67.4933569  70.9901142
  94.7033154  66.9715090  70.2284605  93.5132193  67.3299715  71.0927825
  99.4950917  66.4969347  78.7975885 100.2814006  66.0788771  78.4466302
  99.7589621  67.4015440  78.9657533  99.6660994  71.9342198  73.4964542
  99.0306827  72.0076824  74.2085446  99.3358400  72.5235797  72.8183621
 104.8959344  66.4344581  79.7008863 105.6284516  65.8643797  79.9346693
 104.1398699  66.0466181  80.1415369  94.1703923  69.3961675  73.1925517
  94.0540181  68.7206578  73.8606601  94.2806182  68.9094049  72.3757670
  96.5135463  68.8571822  76.8972206  96.1493671  68.3302443  77.6085127
  97.3702579  68.4670291  76.7238691 102.4184764  60.1466155  84.1603472
 102.0868089  61.0161566  83.9364687 101.8230377  59.8302439  84.8397502
  96.1540950  63.8861722  71.8933554  96.3215353  64.7541958  72.2604025
  95.9638119  64.0489004  70.9694844  98.9116284  72.3478701  83.5599385
  98.6117007  73.2503740  83.4515192  98.5667343  72.0810884  84.4120538
  92.3628765  68.7992498  79.5936089  91.4379262  68.6668712  79.8013781
  92.6113178  69.5786717  80.0906032 102.3113427  64.8661241  81.2396822
 101.4030305  64.7976649  80.9455583 102.2601023  65.3433186  82.0678648
  96.1330171  66.3419379  72.8780221  96.0129796  66.7876430  73.7165702
  95.4382760  66.6904697  72.3193759  89.7237576  68.4425771  80.4279878
  89.8529957  68.6960250  81.3419290  89.0435027  69.0353479  80.1084533
  93.8937063  79.1123021  76.5270352  93.8161093  80.0630846  76.6058833
  93.2898707  78.7668894  77.1845279  96.3854293  66.2850887  89.1831719
  95.6087627  66.8444807  89.1734584  97.0244856  66.7707670  89.7046589
 104.1775074  63.0677679  83.0174696 103.5349454  63.3610212  82.3714491
 103.6730002  62.9530600  83.8227893 101.8315237  66.8140853  73.7060555
 102.7433094  67.0468239  73.5308253 101.3224885  67.3977897  73.1435634
  94.6400665  69.0936340  88.7449686  95.3815350  69.6321384  88.4684510
  93.9337651  69.7202629  88.9021238 100.1156005  71.2365480  87.3421848
 100.5239361  70.7947891  86.5976480  99.3933267  70.6618108  87.5956041
  96.4687075  66.1738087  84.7155405  97.3148270  66.5977501  84.8590054
  96.4085713  65.5171711  85.4093968 100.4384820  71.7966671  81.0974137
  99.8093682  71.9612385  80.3950205 100.0510482  72.2108281  81.8685101
 104.3174052  72.7321109  78.4518500 103.6325090  73.1120010  77.9015534
 104.4017901  73.3416435  79.1850448  99.6186520  63.8342455  86.3736578
  99.3747452  64.5884516  85.8370854  99.8946451  64.2127803  87.2083826
 101.5724983  70.3781068  85.0513844 101.7841878  71.0212828  84.3748225
 101.5254732  69.5443384  84.5835774  99.1751212  62.9898888  81.9550416
  98.3135691  63.2880142  82.2467154  99.2013647  63.2069287  81.0231449
  95.9912782  71.5341079  78.3624222  96.4551127  71.8128782  77.5728844
  95.7269580  70.6324524  78.1797313  92.8836863  71.0812561  81.3003985
  93.4538220  71.5099829  80.6621470  93.4744975  70.7995145  81.9988171
  94.9281668  67.6564231  75.1713787  95.6305711  68.1085275  75.6387713
  94.5962296  67.0148050  75.7993680  93.3762029  66.2475988  89.5464996
  92.7460690  66.9292269  89.7800393  93.2698117  66.1359070  88.6018135
  88.6707002  65.9147784  80.4730921  87.8806056  66.1705313  79.9971031
  89.1618249  66.7296122  80.5782961 102.6870811  73.2553023  83.2236201
 103.5088255  72.8533211  82.9418883 102.6833214  73.1521257  84.1752317
  90.6221747  66.2792363  77.4314397  89.8252910  66.3911058  77.9497893
  90.3947339  66.6179016  76.5655288  96.4527415  72.8037067  85.3796912
  96.5171847  73.2657474  86.2155084  95.7438339  72.1734431  85.5079222
  86.9544705  66.1678275  82.9045911  87.2052743  67.0525284  83.1703487
  87.4904253  65.9882876  82.1321003  96.1675432  74.4705174  75.2475892
  96.0321107  75.3156710  75.6760740  96.7085245  74.6724452  74.4841826
  92.6542772  60.5496754  91.9090247  92.2609718  59.9962952  92.5837892
  93.4708912  60.8607332  92.2996765  89.6204830  71.9880612  75.8203817
  90.1329350  72.7823862  75.9709382  90.2727543  71.2906903  75.7537419
  91.4299714  75.1046368  77.9026570  91.6066343  76.0264333  77.7147554
  92.2256548  74.7904788  78.3320950  95.5710733  61.9654633  89.5010504
  96.3120446  62.5661786  89.4214966  95.8028656  61.2232271  88.9428547
  90.7152071  67.1511000  87.7788734  90.6005586  66.2496257  88.0795833
  89.8596589  67.3974697  87.4273550  92.5531030  76.6224542  83.9036913
  93.1038455  76.4941606  83.1313907  91.7142506  76.9219431  83.5531806
  96.3498201  72.8875670  88.2481144  96.8826538  72.1263958  88.0180452
  95.8212282  72.5949322  88.9905298  99.5167896  57.9935736  83.7774786
  99.1732165  58.8837378  83.7013896  99.8846858  57.8037394  82.9144371
  87.5853746  70.3169266  76.5963388  88.4228968  70.7266275  76.3797096
  87.7632014  69.3768709  76.5663582  99.4818179  67.9844347  72.2847221
  98.9664802  68.7548952  72.5235608  99.2095487  67.3109483  72.9080282
  97.0665290  62.8294048  77.3432459  96.2106886  62.4400898  77.1638098
  97.4792241  62.9086009  76.4832245  98.5964436  60.3640391  81.7424019
  98.0929232  60.3270526  80.9291824  98.8895043  61.2733134  81.8020676
  94.8407322  60.4479121  80.7490201  95.7060319  60.2521929  80.3896090
  94.9084831  60.2189473  81.6759557 104.4552453  70.7376702  74.2200394
 103.6781895  70.3987861  73.7755556 105.1343934  70.7429325  73.5455359
  99.2704482  65.8571439  74.1107002  98.9654617  66.1717588  74.9617145
 100.2234924  65.9352859  74.1534335  97.7150914  72.0161662  75.7599956
  97.1872275  71.2814422  75.4473193  97.2138416  72.7936339  75.5139924
 102.6943760  70.2110683  80.8767002 102.0367434  70.9009944  80.9647131
 103.4984159  70.6007115  81.2200989  92.4469641  62.6781329  78.1206567
  93.0213393  62.4556510  77.3879760  93.0340624  62.7470023  78.8735169
 101.5049218  68.5655056  78.9270944 102.0181100  69.1985047  79.4292654
 102.1550442  67.9656251  78.5614304  92.7739228  64.7085790  72.1402453
  91.9376541  65.0460476  72.4611727  92.6343998  64.5734770  71.2029590
  94.7492309  59.5522578  76.8481637  94.0956721  59.2371595  76.2238252
  94.7072783  58.9298318  77.5741460  95.8603514  69.8341873  68.7634929
  94.9530576  69.6031126  68.9626078  96.3574546  69.0379492  68.9508911
  98.7671593  78.5439380  71.6831615  98.0933291  78.8471077  72.2916573
  99.1537415  79.3468460  71.3337072  97.9830049  66.0404511  81.1729285
  97.0652611  66.2619458  81.0150973  98.3990193  66.1150822  80.3140992
  98.7665097  67.4395927  76.3031965  99.5136916  67.9517324  75.9939087
  99.0356687  67.1179980  77.1636358  97.0391747  69.9354468  73.2858919
  96.1302966  69.6513500  73.3831389  97.0686831  70.3553546  72.4262226
 102.2711015  73.5461057  77.0550087 101.8173342  72.7051967  77.1115277
 101.6404981  74.1822455  77.3924867 101.2143934  64.4753043  78.2850754
 100.4766691  63.9630429  78.6160997 101.4670708  64.0353425  77.4734031
 100.7143954  75.3837554  77.9899905 101.0066928  75.9442611  77.2712270
 101.2242574  75.6766115  78.7453064 101.3155562  57.2529295  78.8792523
 101.6214438  56.3926659  78.5918438 102.0408166  57.8446915  78.6791517
  87.6079918  67.6559982  77.2674121  87.4104317  67.0629342  76.5425188
  87.0526582  67.3512192  77.9850060  95.5876641  67.5483088  79.3868714
  95.6425251  66.5956925  79.3111191  94.7767843  67.7042527  79.8710013
  96.7367835  71.4763211  70.6246998  96.2987265  70.7599070  70.1652635
  97.4778276  71.7039326  70.0632089  93.5269001  66.1660148  77.1459093
  92.7136867  66.4654318  77.5524285  94.0227995  65.7715837  77.8633576
  95.6777579  76.1617905  79.0793358  95.6353758  76.3878751  78.1501890
  96.5940278  75.9281279  79.2279159  99.1243213  66.6301972  85.9773987
  99.4792601  66.8573446  86.8368453  99.7715344  66.9620349  85.3551242
 104.8540950  69.7520408  76.6823316 104.7158848  69.9422004  75.7544505
 104.4977169  70.5139791  77.1391367  93.0183076  63.7378503  82.7620328
  93.6582455  63.5967263  82.0643292  92.1860606  63.4513017  82.3858930
 104.8810329  71.8196935  81.6934588 105.3146836  71.7272224  82.5417642
 105.5941910  71.7954436  81.0554604  93.7943380  73.0380934  78.8755321
  94.5883978  72.5431254  78.6737896  93.0835072  72.5098797  78.5123026
  98.6138224  75.4199029  83.2267688  98.6675247  75.9889966  83.9945404
  97.7453006  75.5900914  82.8621725  90.1026143  67.1824016  74.9515073
  89.1723731  67.1208471  75.1685036  90.1983615  66.6599968  74.1551715
  90.0211692  63.7078828  77.5393315  90.2818510  64.6224162  77.4302475
  90.8428865  63.2403271  77.6889928  91.4936618  65.1216586  84.7092140
  92.1659671  64.9133948  84.0604788  90.6666404  64.9238672  84.2697372
 105.7425879  71.8620636  84.2267473 105.9361769  72.7666446  84.4726748
 105.6426497  71.4028055  85.0606058  97.3962190  61.7478527  86.7257800
  96.7490105  62.4468476  86.6322277  98.1663205  62.1814670  87.0934049
  97.5726324  69.5859291  84.7854620  98.5018384  69.7370451  84.6123587
  97.1517354  69.6743312  83.9303267  96.3714656  73.6109956  82.5553158
  96.2325742  73.2428740  83.4279096  95.5829252  74.1257595  82.3837116
  96.9662808  78.7119052  73.8978694  97.1414564  78.2407096  74.7124317
  96.2795596  79.3384819  74.1259955  97.9219871  72.9891559  79.9441996
  97.5869704  72.9492329  80.8399645  97.4223817  72.3236274  79.4712406
  91.8964115  68.3959189  85.4694577  91.7583913  67.6639427  86.0706116
  92.8069038  68.3068089  85.1878764 100.8579063  70.3347593  70.2179055
 100.2408233  69.6094421  70.1212108 100.3895551  71.0956953  69.8746129
  94.5246416  68.1079148  84.9578256  95.2346034  67.4672340  84.9164875
  94.4815724  68.3592043  85.8804437  93.2375350  65.0944366  86.7773896
  92.7012707  64.6435104  87.4295492  92.6492058  65.2290275  86.0344360
  91.5323893  81.8608415  80.6718554  91.7720491  82.4926939  81.3497573
  90.6893090  81.5096455  80.9583914  92.6477609  64.5533017  69.3400359
  91.7707075  64.4321818  68.9762606  93.1235362  63.7619096  69.0879248
 102.5150602  73.0086085  86.1098815 101.6277380  72.6712007  86.2325214
 103.0849153  72.2769116  86.3467581  84.1679749  69.3410177  79.4341867
  84.8550789  69.0271907  78.8462882  84.0127877  70.2451542  79.1609118
  88.9714471  64.2300373  83.8626890  88.8872660  63.6226043  83.1277300
  88.1497177  64.7209392  83.8636387  96.0451755  77.6687538  83.0760058
  95.9721926  78.4742509  83.5879363  95.6029148  77.8679503  82.2508080
  95.8341535  76.9059308  76.5862880  95.0509056  77.4480988  76.6801105
  96.5334280  77.4233287  76.9857121  99.1438185  62.7153937  79.2297085
  99.6406884  61.9623899  78.9098156  98.3725166  62.7518254  78.6640295
  98.5050438  77.5674372  85.2318217  99.2178411  78.2021836  85.1594119
  98.0140467  77.6638238  84.4158219 100.2267965  71.4725624  76.8035509
  99.2924244  71.5927087  76.6340213 100.4044634  70.5698091  76.5395519
  95.7273153  64.8571320  78.9568770  95.3570941  64.3042360  79.6449676
  96.2232246  64.2529453  78.4043770 103.6140517  67.3142944  77.3385543
 104.0800969  68.1470935  77.2645846 104.0648017  66.8487925  78.0430801
  93.5562352  75.3168815  86.0523788  94.2571812  75.9505298  86.2053182
  93.0857467  75.6583547  85.2919427 101.6816748  73.6586765  74.3371695
 101.9576592  73.5443359  75.2465569 100.8121247  73.2604250  74.2983868
 101.5857179  59.6823531  81.3776444 100.6720259  59.9127757  81.5458651
 102.0150281  59.7661975  82.2290477 101.3563638  67.8713422  83.8776338
 100.7035088  68.1189330  83.2228791 101.7344018  67.0577561  83.5438816
  98.3170812  77.9073116  77.9804509  98.4993206  77.0894772  78.4432261
  99.1403798  78.1240808  77.5429399  98.6512977  76.8341301  75.2419557
  99.1800744  76.3233755  74.6289719  98.9141197  76.5183831  76.1065090
  97.4051211  68.6133234  90.3642375  96.7291848  68.5127363  91.0344751
  98.2278845  68.4572447  90.8278373  89.1530070  74.8505170  82.9854891
  89.7383507  74.1048858  83.1182795  88.9554909  75.1609127  83.8691555
  92.0068725  77.8856417  78.0017333  91.3379101  78.3702545  77.5181373
  91.8681595  78.1325638  78.9160712  83.7447725  67.4210770  81.7059334
  83.7831824  66.8874361  82.4996452  83.2388018  66.8945976  81.0870311
  96.1473994  79.9200161  84.5999991  96.6992302  80.0831782  85.3649077
  96.4880187  80.5104599  83.9280016  91.1238487  62.2675311  85.2021876
  91.1879814  63.1290142  84.7899274  91.0605607  61.6549312  84.4694235
  90.5990760  64.3398443  88.8494910  91.2262798  63.9575521  89.4632435
  89.7418679  64.1212645  89.2150603  87.3756302  66.1474872  74.7813265
  87.6709743  65.2385551  74.7280319  86.4744338  66.1262612  74.4594268
  99.2842381  77.8682137  81.5863674  99.1593521  77.0671876  81.0774619
  99.9421472  78.3628330  81.0977643  90.9050549  64.2230869  80.7640814
  90.1837135  64.8366837  80.6248287  91.6943805  64.7588634  80.6857460
 101.3477290  75.6691157  83.2143224 100.4007625  75.5496508  83.1421550
 101.6960063  74.7813655  83.2969485  93.7076863  61.5585296  87.0381466
  94.2311265  61.8047592  87.8007775  93.4889196  62.3905330  86.6184603
  89.1044144  63.8288970  74.9052590  88.7756850  62.9486349  74.7227696
  89.4583515  63.7736639  75.7928980  98.3523723  75.4643873  79.4147576
  98.2048685  74.5360580  79.5955146  99.1777216  75.4863964  78.9304651
  92.2185967  64.1161940  75.2728068  92.5582040  64.6447861  74.5506676
  92.6658088  64.4542346  76.0486635 101.9557845  76.2872432  80.5012449
 102.8804392  76.0815293  80.3636900 101.7873148  76.0388833  81.4101790
  94.9129408  62.4998991  84.7231136  94.5726228  61.7006804  85.1251816
  94.2068414  62.8000701  84.1507969  95.5645880  59.5848303  83.1758459
  96.3871949  59.1108781  83.0537349  95.8083943  60.3638787  83.6757145
  94.2054114  62.6136561  73.4721361  94.9262477  62.9917814  72.9685078
  93.5819418  63.3325438  73.5756339  98.3485237  63.3181710  74.4079693
  98.5648852  64.2006348  74.1068521  97.8679304  62.9267924  73.6785335
  93.0884459  66.2767424  80.9850438  92.9429039  66.5907727  81.8774719
  92.6109662  66.8952324  80.4321336  94.9480841  63.2669972  81.0331327
  94.9342410  62.3711065  80.6963625  95.6653270  63.2740635  81.6669613
  96.8006972  63.7007312  83.0784455  96.5424750  64.6224383  83.0768785
  96.2692013  63.3037746  83.7684919 101.7453161  76.8058099  75.8574540
 101.9190038  76.2404521  75.1048393 102.2382052  77.6058994  75.6754030
  87.5630121  68.8172768  83.9238099  87.0183589  69.5932576  84.0558373
  88.4409471  69.1643573  83.7657220  94.3517737  62.1484352  76.3018897
  94.4733649  61.2200998  76.5009785  94.0619780  62.1623038  75.3897213
  97.2208928  59.8339262  79.4385617  97.2430625  59.8978595  78.4837597
  97.6376987  58.9943771  79.6326123 102.7328333  76.1224863  72.9571438
 103.4279238  76.7431556  73.1758753 103.0751484  75.2720215  73.2323816
  88.3496143  67.9442664  86.8168256  87.6077879  68.0925300  87.4032886
  88.0288887  68.2050930  85.9535005 104.6319757  73.5724569  74.4858769
 105.1571081  73.9111842  73.7608089 104.5442109  72.6371584  74.3021904
  96.2939805  77.4858643  86.6148646  96.6026932  77.2407789  87.4871345
  97.0915287  77.6905281  86.1267516  96.3160417  79.6396552  78.8454022
  95.8765408  79.1472931  79.5386879  97.0668534  79.0969520  78.6046098
  88.7952756  75.8308093  78.8478650  89.6210776  75.5311865  78.4677294
  88.4446808  75.0615716  79.2968439  93.7634289  75.1834561  80.9176324
  93.1414299  74.5205266  80.6178552  94.4339156  75.2095693  80.2349972
  86.9961361  73.7494420  79.8067584  86.1593270  73.3216594  79.6251585
  86.9685007  73.9426863  80.7438375  93.8358817  63.6616349  90.5108830
  93.8846972  64.5378472  90.1286600  94.3781331  63.1193742  89.9380473
 104.4411538  71.0549939  87.1042696 104.4909543  70.8899946  88.0458218
 104.3325461  70.1877198  86.7140576  93.3247796  73.7338485  74.3934785
  93.4735917  74.4173949  73.7401457  94.1314240  73.7143575  74.9084240
 101.7315300  67.0380867  88.4202002 102.6325163  66.8987332  88.1286000
 101.8063275  67.2035322  89.3600180  96.0658105  64.4147722  87.2655189
  95.1961415  64.7081288  86.9937777  96.3017586  64.9988167  87.9862452
 104.1916923  68.5979495  85.8164775 104.6671044  68.7907141  85.0083627
 103.2682488  68.6538681  85.5708159  91.0800429  69.7603662  75.3995853
  90.8346471  68.8565992  75.5976064  91.2496344  69.7620813  74.4575331
  98.7697139  60.6327339  84.7820609  99.2879083  61.3688366  84.4567098
  98.4152272  60.9391332  85.6167368  90.3496077  65.4932020  72.8982015
  89.6565322  65.5676375  72.2422051  90.1047829  64.7292363  73.4203532
  99.0209733  57.0527621  80.3021506  99.3011487  56.3850810  80.9281932
  99.8060340  57.2456717  79.7896169  96.8243202  76.2286615  71.8646532
  96.2517169  76.8476802  71.4117004  97.3975996  76.7785977  72.3986454
 102.8918592  65.4745255  84.0493081 103.8436015  65.5743353  84.0705305
 102.7222042  64.6823524  84.5591165 100.9132971  62.5600838  84.2352482
 100.3182903  62.8405851  83.5398970 100.6282668  63.0494739  85.0069223
 100.0440462  76.5123765  72.9955114 100.9771135  76.4469327  73.1987990
  99.9563674  77.3480032  72.5369647 102.6728478  75.8289636  69.9559062
 102.5942110  75.4949499  70.8494820 103.4938145  76.3211403  69.9550534
 105.3706669  68.6951375  83.1635380 105.3382990  67.7567376  83.3495064
 105.9807293  68.7735412  82.4301205  97.2090000  67.5647428  69.2062584
  98.1549105  67.4353636  69.2751002  96.8304245  66.8262090  69.6832013
 105.5201158  65.4862418  83.2093664 105.0040207  64.7020875  83.0223592
 106.4041106  65.1581135  83.3740183 103.1811885  59.2303434  79.1689476
 102.9836706  58.9218522  80.0532808 103.7911590  59.9565073  79.2987406
  95.3932918  65.4897404  69.1417470  94.4864373  65.1930517  69.2180183
  95.6708899  65.1927222  68.2751756  86.3110858  66.8103768  79.5916516
  85.9913642  65.9569076  79.2990890  85.7644286  67.0252346  80.3474483
  90.0890765  69.5266209  83.3086023  90.3076775  70.4583316  83.3274056
  90.5016539  69.1674183  84.0940826  97.0094983  60.0334294  75.2961711
  96.1995712  59.6881379  75.6716957  97.6979400  59.7241838  75.8849323
  98.9385532  59.1112341  76.9186008  99.4916570  59.5307794  77.5776031
  99.1755618  58.1848089  76.9608964  94.9618631  65.0999414  92.6988771
  94.8615358  66.0493771  92.6300863  94.7440173  64.7717653  91.8264842
  94.1631702  62.3484339  69.2829449  95.0250866  62.6739238  69.5425266
  94.3482046  61.5615835  68.7702515  86.1799118  70.4306679  81.5609638
  85.4862589  70.0160632  81.0479592  86.9272109  70.4727216  80.9643057
 102.3164339  61.2212866  76.4264672 101.7363008  61.8797670  76.0442724
 102.0500271  60.3990211  76.0152089 100.7667905  60.6217924  78.6285992
 101.2667683  60.7334458  77.8200311 101.4103513  60.3178976  79.2686801
  94.8249901  68.5296553  91.5153833  94.3416983  69.3296913  91.7217722
  94.9110840  68.5404498  90.5621277  88.0935860  70.3624933  79.4375653
  88.0706549  70.4612620  78.4857536  88.4036497  71.2090084  79.7592819
  90.7523238  72.4201088  83.5522267  91.7066492  72.3885030  83.4852198
  90.5535762  71.9591712  84.3672493  91.3422620  70.9902204  86.1193065
  92.1615509  71.4846283  86.1427902  91.6159428  70.0734172  86.0910632
 101.0989217  63.3812956  75.4821020 100.2115072  63.6662607  75.2641215
 101.5143206  63.2206720  74.6348297 104.4503753  63.4059477  79.1975359
 105.2264143  63.8955930  79.4699976 103.7251887  63.8317531  79.6547229
  89.1073467  77.9620707  80.5692465  88.9727935  77.2021108  80.0030463
  88.6905529  78.6861607  80.1021254 100.2432430  73.1457631  69.5769040
 100.9468280  73.3507633  70.1926696  99.5195079  73.7134393  69.8418124
 101.0730240  68.8967492  75.6971310 101.0165442  69.3536044  74.8578943
 101.6258583  68.1358177  75.5194153 104.8835046  64.6857224  76.5221430
 104.6271981  64.2853860  77.3529637 104.2587914  65.4001018  76.3971569
  92.2642593  78.8590024  80.7810907  92.1474977  79.8035457  80.6789598
  91.4435039  78.5563586  81.1696707 102.1519127  73.5840160  71.6267500
 102.9864731  73.1521359  71.4444975 101.9903470  73.4122174  72.5544395
 101.8065020  70.0872273  72.9923839 101.7513823  69.9216545  72.0512284
 101.1811075  70.7948306  73.1486029  86.5957535  65.3240338  86.8185262
  87.2416398  64.8139292  87.3072487  86.3874686  66.0609019  87.3928687
  95.1161145  59.5880382  72.5709158  95.1039815  60.5322222  72.7277429
  96.0084567  59.4050528  72.2768619  93.2897107  79.5118286  83.9966836
  94.1924354  79.5441897  84.3133331  93.0634477  78.5818737  84.0113172
  95.0450709  78.2649273  80.6576914  94.0946340  78.2651134  80.5441287
  95.3483195  77.5182007  80.1412949  98.9313265  56.1823159  76.8255095
  98.1645660  55.6281646  76.9711777  99.3423970  56.2545028  77.6869246
  90.9355026  62.4707955  90.9160276  91.7986487  62.1144760  91.1263600
  90.3620436  62.1321850  91.6035680 103.4479925  85.9072716  77.6481093
 102.8844790  85.8162653  76.8797380 103.3332320  85.0872620  78.1283585
 102.9535110  86.6632821  73.3582692 103.7265986  86.1161808  73.2195568
 103.3060509  87.5277070  73.5697153 105.2901388  82.8225487  70.9901142
 105.5426909  82.3007008  70.2284605 104.3525947  82.6591632  71.0927825
 105.0097677  84.7253593  73.1925517 104.8933935  84.0498496  73.8606601
 105.1199937  84.2385967  72.3757670 103.2022520  84.1284415  79.5936089
 102.2773016  83.9960629  79.8013781 103.4506933  84.9078635  80.0906032
 100.5631331  83.7717689  80.4279878 100.6923712  84.0252168  81.3419290
  99.8828782  84.3645397  80.1084533 105.7675422  82.9856149  75.1713787
 106.4699466  83.4377193  75.6387713 105.4356051  82.3439968  75.7993680
  99.5100756  81.2439702  80.4730921  98.7199810  81.4997230  79.9971031
 100.0012004  82.0588040  80.5782961 101.4615502  81.6084281  77.4314397
 100.6646665  81.7202975  77.9497893 101.2341094  81.9470933  76.5655288
  97.7938459  81.4970192  82.9045911  98.0446498  82.3817202  83.1703487
  98.3298008  81.3174794  82.1321003 100.4598584  87.3172530  75.8203817
 100.9723105  88.1115780  75.9709382 101.1121297  86.6198820  75.7537419
  98.4247501  85.6461184  76.5963388  99.2622723  86.0558192  76.3797096
  98.6025769  84.7060626  76.5663582 105.6801077  75.7771038  80.7490201
 106.5454073  75.5813847  80.3896090 105.7478586  75.5481390  81.6759557
 103.2863396  78.0073246  78.1206567 103.8607148  77.7848428  77.3879760
 103.8734378  78.0761941  78.8735169 103.6132983  80.0377707  72.1402453
 102.7770295  80.3752394  72.4611727 103.4737752  79.9026687  71.2029590
 105.5886063  74.8814495  76.8481637 104.9350476  74.5663512  76.2238252
 105.5466538  74.2590236  77.5741460  98.4473672  82.9851899  77.2674121
  98.2498072  82.3921260  76.5425188  97.8920336  82.6804110  77.9850060
 106.4270396  82.8775006  79.3868714 106.4819006  81.9248842  79.3111191
 105.6161598  83.0334445  79.8710013 104.3662756  81.4952066  77.1459093
 103.5530621  81.7946236  77.5524285 104.8621750  81.1007754  77.8633576
 103.8576830  79.0670421  82.7620328 104.4976210  78.9259180  82.0643292
 103.0254361  78.7804935  82.3858930 100.9419898  82.5115933  74.9515073
 100.0117486  82.4500389  75.1685036 101.0377370  81.9891886  74.1551715
 100.8605447  79.0370746  77.5393315 101.1212264  79.9516079  77.4302475
 101.6822619  78.5695189  77.6889928 103.4871363  79.8824935  69.3400359
 102.6100829  79.7613736  68.9762606 103.9629116  79.0911013  69.0879248
  95.0073503  84.6702095  79.4341867  95.6944543  84.3563825  78.8462882
  94.8521632  85.5743459  79.1609118  99.8108225  79.5592291  83.8626890
  99.7266414  78.9517961  83.1277300  98.9890932  80.0501309  83.8636387
  94.5841479  82.7502688  81.7059334  94.6225579  82.2166279  82.4996452
  94.0781772  82.2237893  81.0870311 101.9632242  77.5967228  85.2021876
 102.0273568  78.4582059  84.7899274 101.8999362  76.9841230  84.4694235
  98.2150057  81.4766790  74.7813265  98.5103498  80.5677469  74.7280319
  97.3138093  81.4554530  74.4594268 101.7444304  79.5522787  80.7640814
 101.0230890  80.1658754  80.6248287 102.5337560  80.0880552  80.6857460
  99.9437898  79.1580888  74.9052590  99.6150605  78.2778267  74.7227696
 100.2977269  79.1028556  75.7928980 103.0579722  79.4453858  75.2728068
 103.3975794  79.9739779  74.5506676 103.5051842  79.7834264  76.0486635
 105.0447869  77.9428479  73.4721361 105.7656231  78.3209732  72.9685078
 104.4213173  78.6617356  73.5756339 103.9278213  81.6059341  80.9850438
 103.7822794  81.9199644  81.8774719 103.4503417  82.2244242  80.4321336
 105.7874596  78.5961889  81.0331327 105.7736165  77.7002983  80.6963625
 106.5047024  78.6032553  81.6669613 105.1911492  77.4776270  76.3018897
 105.3127403  76.5492916  76.5009785 104.9013534  77.4914956  75.3897213
 104.1641551  89.0630402  74.3934785 104.3129671  89.7465867  73.7401457
 104.9707994  89.0435492  74.9084240 101.9194184  85.0895580  75.3995853
 101.6740226  84.1857910  75.5976064 102.0890098  85.0912730  74.4575331
 101.1889831  80.8223938  72.8982015 100.4959076  80.8968293  72.2422051
 100.9441583  80.0584281  73.4203532 106.2326672  80.8189322  69.1417470
 105.3258127  80.5222435  69.2180183 106.5102653  80.5219140  68.2751756
  97.1504612  82.1395685  79.5916516  96.8307397  81.2860994  79.2990890
  96.6038041  82.3544263  80.3474483 105.0025457  77.6776257  69.2829449
 105.8644621  78.0031155  69.5425266 105.1875801  76.8907753  68.7702515
  97.0192872  85.7598597  81.5609638  96.3256344  85.3452550  81.0479592
  97.7665863  85.8019133  80.9643057  98.9329615  85.6916851  79.4375653
  98.9100303  85.7904538  78.4857536  99.2430251  86.5382001  79.7592819
  48.1748876  -2.4497133  67.3963861  48.4145475  -1.8178609  68.0742880
  47.3318073  -2.8009093  67.6829220  60.0904908   1.5967168  64.3726399
  59.5269773   1.5057105  63.6042687  59.9757303   0.7767072  64.8528892
  57.6369340   3.0918359  67.2110620  58.4290632   2.7509184  66.7956919
  57.8765990   3.2013334  68.1312773  65.6704467   5.2638135  59.6840864
  65.0192446   5.8492216  59.2974878  66.4648829   5.7944330  59.7435902
  59.5960094   2.3527273  60.0827998  60.3690970   1.8056260  59.9440874
  59.9485493   3.2171522  60.2942460  61.4345136   3.6803655  73.2894898
  61.1435002   4.5849286  73.1741564  62.0702121   3.7220182  74.0038967
  62.3601343   1.0580503  69.8796257  62.9564915   0.8336526  69.1653220
  62.4176315   0.3165249  70.4821705  67.1479732   2.9528567  60.2209848
  66.5125565   3.0263194  60.9330753  66.8177138   3.5422166  59.5428928
  66.3935021   3.3665070  70.2844691  66.0935744   4.2690109  70.1760499
  66.0486081   3.0997254  71.1365844  59.8447503  -0.1821133  66.3181396
  58.9197999  -0.3144919  66.5259088  60.0931916   0.5973086  66.8151338
  57.2056314  -0.5387859  67.1525185  57.3348695  -0.2853380  68.0664597
  56.5253765   0.0539849  66.8329840  61.3755801  10.1309391  63.2515659
  61.2979831  11.0817216  63.3304140  60.7717445   9.7855263  63.9090585
  67.9203558   2.8153041  67.8219443  67.2912420   2.9798755  67.1195511
  67.5329220   3.2294650  68.5930407  71.7992789   3.7507478  65.1763807
  71.1143828   4.1306380  64.6260840  71.8836639   4.3602805  65.9095755
  63.4731519   2.5527449  65.0869528  63.9369865   2.8315152  64.2974151
  63.2088318   1.6510893  64.9042619  60.3655600   2.0998930  68.0249292
  60.9356958   2.5286199  67.3866776  60.9563712   1.8181515  68.7233477
  70.1689549   4.2739393  69.9481508  70.9906993   3.8719580  69.6664190
  70.1651952   4.1707627  70.8997624  63.9346152   3.8223436  72.1042219
  63.9990585   4.2843843  72.9400390  63.2257076   3.1920801  72.2324528
  63.6494170   5.4891544  61.9721199  63.5139845   6.3343079  62.4006047
  64.1903983   5.6910821  61.2087133  57.1023567   3.0066982  62.5449124
  57.6148088   3.8010232  62.6954689  57.7546280   2.3093272  62.4782725
  58.9118452   6.1232738  64.6271877  59.0885081   7.0450703  64.4392861
  59.7075286   5.8091157  65.0566257  65.2762646   6.1115110  76.1021541
  64.8326501   5.3251489  75.7842445  65.9379860   6.2994261  75.4365432
  60.0349768   7.6410912  70.6282219  60.5857193   7.5127975  69.8559213
  59.1961244   7.9405801  70.2777112  67.3743885   6.3917910  74.1302942
  67.3562360   7.2126791  73.6383211  68.2963805   6.2671985  74.3553083
  63.8316939   3.9062040  74.9726451  64.3645275   3.1450328  74.7425759
  63.3031020   3.6135691  75.7150605  55.0672484   1.3355636  63.3208694
  55.9047706   1.7452644  63.1042402  55.2450752   0.3955078  63.2908888
  65.1969651   3.0348032  62.4845263  64.6691013   2.3000792  62.1718500
  64.6957154   3.8122708  62.2385231  66.2490330   9.5625749  58.4076922
  65.5752029   9.8657446  59.0161880  66.6356152  10.3654830  58.0582379
  69.7529752   4.5647427  63.7795393  69.2992080   3.7238337  63.8360584
  69.1223719   5.2008825  64.1170173  68.1962692   6.4023923  64.7145211
  68.4885666   6.9628980  63.9957577  68.7061312   6.6952484  65.4698370
  55.0898655  -1.3253649  63.9919428  54.8923055  -1.9184288  63.2670494
  54.5345319  -1.6301439  64.7095367  64.2186573   2.4949581  57.3492304
  63.7806003   1.7785440  56.8897942  64.9597014   2.7225696  56.7877396
  63.1596317   7.1804274  65.8038665  63.1172496   7.4065121  64.8747197
  64.0759016   6.9467649  65.9524466  61.2762118   4.0567303  65.6000627
  62.0702716   3.5617624  65.3983202  60.5653810   3.5285167  65.2368333
  66.0956962   6.4385399  69.9512995  66.1493984   7.0076335  70.7190711
  65.2271743   6.6087284  69.5867032  68.2859725   3.0313748  76.5253660
  68.1345232   2.8024300  75.6083744  68.2764405   3.9884350  76.5385005
  63.8533394   4.6296325  69.2798464  63.7144479   4.2615110  70.1524403
  63.0647990   5.1443965  69.1082422  64.4481546   9.7305422  60.6224001
  64.6233301   9.2593465  61.4369624  63.7614334  10.3571188  60.8505262
  65.4038609   4.0077928  66.6687302  65.0688441   3.9678698  67.5644952
  64.9042554   3.3422644  66.1957712  69.9951932   6.0632871  74.6030142
  69.9364478   5.3792091  73.9360725  70.3971450   6.8051861  74.1510768
  59.0142631  12.8794785  67.3963861  59.2539229  13.5113309  68.0742880
  58.1711827  12.5282825  67.6829220  69.9969339   4.0272455  72.8344122
  69.1096118   3.6898377  72.9570521  70.5667890   3.2955486  73.0712887
  51.6498486   0.3596547  66.1587173  52.3369526   0.0458277  65.5708189
  51.4946615   1.2637911  65.8854425  63.5270493   8.6873907  69.8005365
  63.4540664   9.4928879  70.3124670  63.0847886   8.8865873  68.9753386
  63.3160272   7.9245677  63.3108187  62.5327794   8.4667357  63.4046411
  64.0153018   8.4419657  63.7102428  65.9869176   8.5860741  71.9563524
  66.6997148   9.2208206  71.8839425  65.4959205   8.6824607  71.1403526
  61.0381090   6.3355185  72.7769095  61.7390549   6.9691668  72.9298489
  60.5676205   6.6769916  72.0164734  69.1635486   4.6773134  61.0617002
  69.4395330   4.5629729  61.9710876  68.2939984   4.2790619  61.0229175
  65.7989550   8.9259485  64.7049815  65.9811944   8.1081141  65.1677568
  66.6222536   9.1427177  64.2674705  66.1331715   7.8527670  61.9664864
  66.6619482   7.3420125  61.3535026  66.3959935   7.5370201  62.8310397
  56.6348808   5.8691540  69.7100197  57.2202245   5.1235228  69.8428101
  56.4373646   6.1795496  70.5936861  59.4887463   8.9042787  64.7262640
  58.8197838   9.3888915  64.2426680  59.3500333   9.1512007  65.6406018
  51.2266463  -1.5602860  68.4304640  51.2650562  -2.0939269  69.2241759
  50.7206755  -2.0867655  67.8115618  63.6292732  10.9386531  71.3245298
  64.1811040  11.1018152  72.0894383  63.9698925  11.5290968  70.6525323
  68.4803606   5.7647788  77.1793952  69.0243510   6.3777746  76.6848907
  67.8990451   6.3227366  77.6960965  66.7661119   8.8868506  68.3108980
  66.6412258   8.0858246  67.8019926  67.4240210   9.3814699  67.8222950
  68.8296027   6.6877526  69.9388530  67.8826363   6.5682877  69.8666857
  69.1778800   5.8000024  70.0214792  65.8342461   6.4830242  66.1392882
  65.6867423   5.5546950  66.3200453  66.6595954   6.5050333  65.6549958
  69.4376582   7.3058801  67.2257755  70.3623130   7.1001662  67.0882206
  69.2691886   7.0575202  68.1347097  69.2271899   7.8244469  62.5819847
  69.4008776   7.2590891  61.8293699  69.7200790   8.6245363  62.3999337
  55.0448858  -0.1640862  70.6483405  54.5002327   0.6118946  70.7803680
  55.9228208   0.1829942  70.4902527  70.2147071   7.1411233  59.6816745
  70.9097976   7.7617926  59.9004060  70.5570221   6.2906584  59.9569123
  55.8314880  -1.0370966  73.5413562  55.0896616  -0.8888331  74.1278193
  55.5107625  -0.7762700  72.6780312  72.1138494   4.5910939  61.2104076
  72.6389818   4.9298211  60.4853396  72.0260847   3.6557954  61.0267210
  63.7758543   8.5045012  73.3393952  64.0845669   8.2594159  74.2116652
  64.5734025   8.7091651  72.8512823  63.7979155  10.6582922  65.5699329
  63.3584145  10.1659300  66.2632186  64.5487272  10.1155889  65.3291404
  56.2771494   6.8494463  65.5723957  57.1029514   6.5498235  65.1922601
  55.9265546   6.0802085  66.0213746  61.2453027   6.2020931  67.6421631
  60.6233036   5.5391636  67.3423858  61.9157894   6.2282063  66.9595278
  54.4780099   4.7680789  66.5312891  53.6412007   4.3402963  66.3496892
  54.4503745   4.9613232  67.4683682  71.8032400   5.2243842  76.5155274
  71.0127944   5.2067981  75.9759773  71.5665755   5.7632136  77.2704310
  60.8066534   4.7524854  61.1180091  60.9554654   5.4360319  60.4646764
  61.6132978   4.7329944  61.6329547  58.5619167   0.7790032  62.1241160
  58.3165209  -0.1247638  62.3221370  58.7315082   0.7807182  61.1820638
  64.3061940   7.2472985  58.5891839  63.7335907   7.8663172  58.1362310
  64.8794733   7.7972346  59.1231761  67.5259199   7.5310135  59.7200421
  68.4589873   7.4655696  59.9233296  67.4382412   8.3666402  59.2614953
  70.1547216   6.8476005  56.6804368  70.0760848   6.5135869  57.5740126
  70.9756883   7.3397773  56.6795841  64.5747431   2.6351544  77.3908548
  65.4950440   2.8130143  77.5848595  64.5397014   1.6907589  77.2388247
  57.5709503   0.5452578  70.0331329  57.7895513   1.4769686  70.0519363
  57.9835277   0.1860553  70.8186133  53.6617856   1.4493049  68.2854944
  52.9681327   1.0347001  67.7724899  54.4090847   1.4913585  67.6888363
  55.5754598   1.3811302  66.1620959  55.5525286   1.4798990  65.2102842
  55.8855235   2.2276453  66.4838125  58.2341976   3.4387458  70.2767574
  59.1885230   3.4071400  70.2097505  58.0354500   2.9778081  71.0917799
  58.8241358   2.0088574  72.8438371  59.6434247   2.5032652  72.8673209
  59.0978166   1.0920542  72.8155939  56.5892205   8.9807077  67.2937771
  56.4546673   8.2207478  66.7275769  56.1724267   9.7047977  66.8266560
  67.7251168   4.1644001  56.3014347  68.4287018   4.3694003  56.9172002
  67.0013817   4.7320762  56.5663430  59.7461331   9.8776394  67.5056214
  59.6293715  10.8221827  67.4034904  58.9253777   9.5749956  67.8942013
  69.6337865   4.6026530  58.3512807  70.4683469   4.1707728  58.1690282
  69.4722208   4.4308543  59.2789701  66.6029665   3.4107555  79.0422709
  67.4720824   3.5848207  78.6809344  66.1236416   4.2301972  78.9198438
  60.7715845  10.5304656  70.7212142  61.6743092  10.5628266  71.0378637
  60.5453215   9.6005107  70.7358478  62.5269447   9.2835642  67.3822221
  61.5765078   9.2837504  67.2686593  62.8301933   8.5368377  66.8658256
  78.2622140  15.1196181  68.4467984  78.9000550  15.0002928  67.7431324
  78.1442983  16.0677025  68.5055936  75.0711847  15.0723609  68.3829508
  74.7330358  14.9564674  67.4950043  75.9401615  14.6714774  68.3630514
  70.9298662  16.9259085  64.3726399  70.3663527  16.8349022  63.6042687
  70.8151057  16.1058990  64.8528892  75.5531630  16.2258461  74.3415714
  75.5420270  15.8311259  73.4696217  75.7152269  15.4924533  74.9349485
  68.4763094  18.4210277  67.2110620  69.2684386  18.0801102  66.7956919
  68.7159744  18.5305252  68.1312773  76.5098221  20.5930053  59.6840864
  75.8586201  21.1784133  59.2974878  77.3042584  21.1236248  59.7435902
  70.4353848  17.6819190  60.0827998  71.2084724  17.1348177  59.9440874
  70.7879247  18.5463440  60.2942460  72.2738891  19.0095572  73.2894898
  71.9828757  19.9141203  73.1741564  72.9095875  19.0512100  74.0038967
  73.1995098  16.3872421  69.8796257  73.7958670  16.1628443  69.1653220
  73.2570069  15.6457166  70.4821705  72.7720126  13.8411856  57.7146448
  73.0245647  13.3193378  56.9529911  71.8344685  13.6778002  57.8173132
  77.8163409  12.8447635  65.5221192  78.6026498  12.4267058  65.1711609
  78.0802113  13.7493727  65.6902840  77.9873486  18.2820485  60.2209848
  77.3519319  18.3555112  60.9330753  77.6570893  18.8714084  59.5428928
  83.2171836  12.7822868  66.4254170  83.9497008  12.2122085  66.6592000
  82.4611192  12.3944468  66.8660676  72.4916415  15.7439962  59.9170823
  72.3752673  15.0684866  60.5851908  72.6018675  15.2572336  59.1002976
  74.8347956  15.2050109  63.6217513  74.4706163  14.6780730  64.3330434
  75.6915072  14.8148578  63.4483998  74.4753443  10.2340009  58.6178861
  74.6427845  11.1020245  58.9849332  74.2850612  10.3967291  57.6940150
  77.2328776  18.6956988  70.2844691  76.9329499  19.5982027  70.1760499
  76.8879835  18.4289171  71.1365844  70.6841257  15.1470785  66.3181396
  69.7591754  15.0146999  66.5259088  70.9325671  15.9265004  66.8151338
  80.6325920  11.2139528  67.9642129  79.7242797  11.1454937  67.6700890
  80.5813515  11.6911473  68.7923954  74.4542664  12.6897667  59.6025528
  74.3342289  13.1354717  60.4411008  73.7595252  13.0382984  59.0439066
  68.0450068  14.7904058  67.1525185  68.1742450  15.0438537  68.0664597
  67.3647520  15.3831766  66.8329840  72.2149556  25.4601308  63.2515659
  72.1373585  26.4109133  63.3304140  71.6111199  25.1147181  63.9090585
  74.7066785  12.6329174  75.9077026  73.9300120  13.1923094  75.8979891
  75.3457348  13.1185957  76.4291896  82.4987566   9.4155967  69.7420003
  81.8561946   9.7088500  69.0959797  81.9942495   9.3008887  70.5473199
  80.1527730  13.1619140  60.4305862  81.0645586  13.3946527  60.2553559
  79.6437377  13.7456184  59.8680941  72.9613158  15.4414627  75.4694993
  73.7027842  15.9799671  75.1929817  72.2550143  16.0680916  75.6266545
  78.4368497  17.5843768  74.0667154  78.8451853  17.1426178  73.3221787
  77.7145759  17.0096395  74.3201347  74.7899567  12.5216374  71.4400711
  75.6360763  12.9455788  71.5835360  74.7298205  11.8649999  72.1339275
  78.7597312  18.1444958  67.8219443  78.1306174  18.3090672  67.1195511
  78.3722974  18.5586568  68.5930407  82.6386544  19.0799396  65.1763807
  81.9537582  19.4598297  64.6260840  82.7230393  19.6894723  65.9095755
  77.9399013  10.1820743  73.0981885  77.6959945  10.9362803  72.5616161
  78.2158943  10.5606090  73.9329132  79.8937476  16.7259355  71.7759151
  80.1054371  17.3691115  71.0993532  79.8467224  15.8921672  71.3081081
  77.4963704   9.3377176  68.6795723  76.6348184   9.6358429  68.9712460
  77.5226139   9.5547575  67.7476755  74.3125274  17.8819366  65.0869528
  74.7763619  18.1607069  64.2974151  74.0482072  16.9802811  64.9042619
  71.2049355  17.4290848  68.0249292  71.7750712  17.8578116  67.3866776
  71.7957467  17.1473433  68.7233477  73.2494160  14.0042519  61.8959094
  73.9518203  14.4563562  62.3633020  72.9174788  13.3626338  62.5238987
  71.6974521  12.5954275  76.2710303  71.0673182  13.2770556  76.5045700
  71.5910609  12.4837357  75.3263441  66.9919494  12.2626071  67.1976227
  66.2018548  12.5183600  66.7216338  67.4830741  13.0774409  67.3028268
  81.0083303  19.6031311  69.9481508  81.8300747  19.2011498  69.6664190
  81.0045706  19.4999545  70.8997624  68.9434239  12.6270651  64.1559704
  68.1465403  12.7389345  64.6743200  68.7159832  12.9657303  63.2900594
  74.7739907  19.1515354  72.1042219  74.8384339  19.6135761  72.9400390
  74.0650831  18.5212719  72.2324528  65.2757197  12.5156562  69.6291218
  65.5265235  13.4003572  69.8948794  65.8116745  12.3361163  68.8566310
  89.0989297  15.9470059  66.2966479  88.3453005  15.3777457  66.1410484
  89.2336838  15.9132723  67.2437114  74.4887925  20.8183461  61.9721199
  74.3533599  21.6634997  62.4006047  75.0297737  21.0202739  61.2087133
  70.9755264   6.8975041  78.6335554  70.5822210   6.3441240  79.3083198
  71.7921405   7.2085620  79.0242072  67.9417322  18.3358899  62.5449124
  68.4541843  19.1302150  62.6954689  68.5940035  17.6385190  62.4782725
  69.7512207  21.4524656  64.6271877  69.9278835  22.3742620  64.4392861
  70.5469040  21.1383075  65.0566257  73.8923225   8.3132920  76.2255811
  74.6332939   8.9140073  76.1460273  74.1241148   7.5710558  75.6673853
  69.0364563  13.4989288  74.5034040  68.9218078  12.5974545  74.8041139
  68.1809081  13.7452984  74.1518857  76.1156401  21.4407028  76.1021541
  75.6720255  20.6543406  75.7842445  76.7773615  21.6286178  75.4365432
  70.8743522  22.9702829  70.6282219  71.4250947  22.8419893  69.8559213
  70.0354998  23.2697718  70.2777112  78.2137639  21.7209828  74.1302942
  78.1956114  22.5418709  73.6383211  79.1357559  21.5963903  74.3553083
  74.6710693  19.2353957  74.9726451  75.2039030  18.4742245  74.7425759
  74.1424774  18.9427609  75.7150605  65.9066239  16.6647554  63.3208694
  66.7441461  17.0744562  63.1042402  66.0844506  15.7246996  63.2908888
  77.8030671  14.3322634  59.0092527  77.2877294  15.1027239  59.2480915
  77.5307979  13.6587770  59.6325589  75.3877782   9.1772335  64.0677766
  74.5319378   8.7879185  63.8883404  75.8004734   9.2564296  63.2077551
  76.9176929   6.7118678  68.4669326  76.4141724   6.6748814  67.6537131
  77.2107535   7.6211421  68.5265982  73.1619814   6.7957408  67.4735507
  74.0272811   6.6000217  67.1141397  73.2297323   6.5667760  68.4004864
  82.7764945  17.0854989  60.9445701  81.9994388  16.7466148  60.5000863
  83.4556426  17.0907612  60.2700666  77.5916974  12.2049726  60.8352309
  77.2867110  12.5195876  61.6862452  78.5447416  12.2831146  60.8779642
  76.0363406  18.3639950  62.4845263  75.5084767  17.6292709  62.1718500
  75.5350909  19.1414626  62.2385231  81.0156252  16.5588970  67.6012309
  80.3579926  17.2488232  67.6892438  81.8196651  16.9485402  67.9446295
  70.7682134   9.0259616  64.8451874  71.3425885   8.8034797  64.1125067
  71.3553116   9.0948310  65.5980475  79.8261711  14.9133343  65.6516251
  80.3393592  15.5463335  66.1537960  80.4762935  14.3134538  65.2859611
  71.0951721  11.0564077  58.8647759  70.2589033  11.3938764  59.1857034
  70.9556490  10.9213057  57.9274896  73.0704801   5.9000865  63.5726944
  72.4169214   5.5849882  62.9483558  73.0285275   5.2776605  64.2986766
  74.1816006  16.1820160  55.4880236  73.2743068  15.9509413  55.6871385
  74.6787038  15.3857779  55.6754217  77.0884085  24.8917667  58.4076922
  76.4145784  25.1949364  59.0161880  77.4749907  25.6946747  58.0582379
  76.3042542  12.3882798  67.8974591  75.3865103  12.6097745  67.7396279
  76.7202685  12.4629109  67.0386298  77.0877589  13.7874214  63.0277271
  77.8349408  14.2995611  62.7184393  77.3569179  13.4658267  63.8881665
  75.3604240  16.2832755  60.0104226  74.4515459  15.9991788  60.1076695
  75.3899323  16.7031833  59.1507533  80.5923507  19.8939344  63.7795393
  80.1385834  19.0530254  63.8360584  79.9617474  20.5300743  64.1170173
  79.5356426  10.8231330  65.0096061  78.7979183  10.3108717  65.3406303
  79.7883200  10.3831712  64.1979338  79.0356446  21.7315841  64.7145211
  79.3279421  22.2920898  63.9957577  79.5455067  22.0244402  65.4698370
  65.9292410  14.0038269  63.9919428  65.7316810  13.4107630  63.2670494
  65.3739074  13.6990479  64.7095367  73.9089134  13.8961375  66.1114021
  73.9637743  12.9435212  66.0356498  73.0980336  14.0520815  66.5955319
  75.0580327  17.8241499  57.3492304  74.6199757  17.1077357  56.8897942
  75.7990768  18.0517613  56.7877396  71.8481493  12.5138435  63.8704400
  71.0349359  12.8132606  64.2769592  72.3440488  12.1194124  64.5878882
  73.9990071  22.5096192  65.8038665  73.9566250  22.7357038  64.8747197
  74.9152770  22.2759567  65.9524466  77.4455705  12.9780260  72.7019294
  77.8005093  13.2051733  73.5613760  78.0927836  13.3098636  72.0796549
  83.1753442  16.0998696  63.4068623  83.0371341  16.2900292  62.4789812
  82.8189661  16.8618078  63.8636674  71.3395568  10.0856791  69.4865635
  71.9794948   9.9445550  68.7888598  70.5073099   9.7991304  69.1104237
  83.2022822  18.1675223  68.4179894  83.6359328  18.0750512  69.2662948
  83.9154402  18.1432723  67.7799910  72.1155872  19.3859221  65.6000627
  72.9096471  18.8909541  65.3983202  71.4047565  18.8577084  65.2368333
  76.9350717  21.7677317  69.9512995  76.9887739  22.3368253  70.7190711
  76.0665498  21.9379202  69.5867032  68.4238636  13.5302303  61.6760380
  67.4936224  13.4686758  61.8930342  68.5196108  13.0078256  60.8797021
  68.3424185  10.0557116  64.2638622  68.6031002  10.9702449  64.1547782
  69.1641357   9.5881558  64.4135234  69.8149110  11.4694873  71.4337446
  70.4872163  11.2612235  70.7850095  68.9878897  11.2716959  70.9942678
  84.0638371  18.2098923  70.9512780  84.2574261  19.1144734  71.1972055
  83.9638989  17.7506342  71.7851365  75.7174682   8.0956814  73.4503107
  75.0702597   8.7946763  73.3567583  76.4875697   8.5292958  73.8179355
  79.1253480  18.3605666  76.5253660  78.9738986  18.1316218  75.6083744
  79.1158159  19.3176267  76.5385005  75.8938816  15.9337579  71.5099927
  76.8230876  16.0848738  71.3368894  75.4729846  16.0221599  70.6548573
  74.6927148  19.9588243  69.2798464  74.5538234  19.5907028  70.1524403
  73.9041744  20.4735883  69.1082422  75.2875300  25.0597340  60.6224001
  75.4627056  24.5885383  61.4369624  74.6008088  25.6863106  60.8505262
  76.2432363  19.3369846  66.6687302  75.9082196  19.2970616  67.5644952
  75.7436309  18.6714562  66.1957712  70.2176607  14.7437476  72.1939883
  70.0796405  14.0117715  72.7951422  71.1281531  14.6546376  71.9124071
  79.1791555  16.6825880  56.9424362  78.5620726  15.9572708  56.8457415
  78.7108043  17.4435240  56.5991436  72.8458908  14.4557435  71.6823563
  73.5558526  13.8150627  71.6410181  72.8028216  14.7070330  72.6049744
  80.8345687  21.3924788  74.6030142  80.7758233  20.7084009  73.9360725
  81.2365205  22.1343779  74.1510768  71.5587842  11.4422653  73.5019202
  71.0225199  10.9913392  74.1540799  70.9704550  11.5768562  72.7589667
  69.8536385  28.2086702  67.3963861  70.0932984  28.8405227  68.0742880
  69.0105582  27.8574742  67.6829220  70.9690101  10.9011304  56.0645666
  70.0919567  10.7800105  55.7007913  71.4447854  10.1097383  55.8124555
  80.8363094  19.3564372  72.8344122  79.9489873  19.0190294  72.9570521
  81.4061645  18.6247404  73.0712887  62.4892241  15.6888464  66.1587173
  63.1763281  15.3750194  65.5708189  62.3340370  16.5929829  65.8854425
  67.2926963  10.5778661  70.5872197  67.2085152   9.9704330  69.8522607
  66.4709670  11.0687679  70.5881693  74.3664247  24.0165825  69.8005365
  74.2934419  24.8220796  70.3124670  73.9241640  24.2157791  68.9753386
  74.1554027  23.2537595  63.3108187  73.3721549  23.7959275  63.4046411
  74.8546772  23.7711574  63.7102428  77.4650677   9.0632224  65.9542392
  77.9619377   8.3102187  65.6343462  76.6937658   9.0996541  65.3885601
  85.3180434  14.7672590  67.5960684  85.3070311  15.6497305  67.2254617
  84.4497814  14.4144141  67.4015221  76.8262931  23.9152659  71.9563524
  77.5390903  24.5500124  71.8839425  76.3352959  24.0116525  71.1403526
  78.5480458  17.8203911  63.5280815  77.6136736  17.9405374  63.3585520
  78.7257126  16.9176378  63.2640825  74.0485646  11.2049607  65.6814077
  73.6783433  10.6520648  66.3694982  74.5444738  10.6007741  65.1289077
  81.9353009  13.6621231  64.0630850  82.4013461  14.4949222  63.9891152
  82.3860510  13.1966212  64.7676108  71.8774844  21.6647102  72.7769095
  72.5784304  22.2983585  72.9298489  71.4069959  22.0061834  72.0164734
  80.0029240  20.0065052  61.0617002  80.2789084  19.8921647  61.9710876
  79.1333739  19.6082537  61.0229175  79.6776130  14.2191710  70.6021645
  79.0247581  14.4667617  69.9474098  80.0556510  13.4055848  70.2684122
  76.6383304  24.2551403  64.7049815  76.8205699  23.4373059  65.1677568
  77.4616290  24.4719095  64.2674705  76.9725470  23.1819588  61.9664864
  77.5013236  22.6712043  61.3535026  77.2353689  22.8662118  62.8310397
  75.7263703  14.9611521  77.0887682  75.0504340  14.8605650  77.7590057
  76.5491337  14.8050735  77.5523679  67.4742562  21.1983457  69.7100197
  68.0595999  20.4527145  69.8428101  67.2767401  21.5087414  70.5936861
  70.3281218  24.2334705  64.7262640  69.6591593  24.7180832  64.2426680
  70.1894087  24.4803925  65.6406018  62.0660217  13.7689058  68.4304640
  62.1044317  13.2352648  69.2241759  61.5600510  13.2424263  67.8115618
  74.4686486  26.2678448  71.3245298  75.0204794  26.4310070  72.0894383
  74.8092680  26.8582886  70.6525323  69.4450979   8.6153598  71.9267183
  69.5092306   9.4768429  71.5144580  69.3818100   8.0027600  71.1939541
  68.9203252  10.6876731  75.5740217  69.5475291  10.3053808  76.1877741
  68.0631171  10.4690933  75.9395909  79.3197360  21.0939706  77.1793952
  79.8637264  21.7069664  76.6848907  78.7384205  21.6519284  77.6960965
  65.6968795  12.4953160  61.5058572  65.9922236  11.5863838  61.4525625
  64.7956830  12.4740899  61.1839574  77.6054873  24.2160424  68.3108980
  77.4806013  23.4150164  67.8019926  78.2633965  24.7106617  67.8222950
  69.2263042  10.5709156  67.4886120  68.5049627  11.1845124  67.3493594
  70.0156297  11.1066921  67.4102766  79.6689782  22.0169444  69.9388530
  78.7220117  21.8974795  69.8666857  80.0172555  21.1291942  70.0214792
  72.0289355   7.9063583  73.7626772  72.5523757   8.1525879  74.5253081
  71.8101688   8.7383618  73.3429909  67.4256636  10.1767257  61.6297897
  67.0969342   9.2964636  61.4473003  67.7796007  10.1214926  62.5174286
  76.6736215  21.8122160  66.1392882  76.5261178  20.8838867  66.3200453
  77.4989709  21.8342251  65.6549958  70.5398459  10.4640227  61.9973375
  70.8794532  10.9926148  61.2751983  70.9870580  10.8020633  62.7731941
  80.2770337  22.6350719  67.2257755  81.2016884  22.4293580  67.0882206
  80.1085640  22.3867120  68.1347097  73.2341900   8.8477278  71.4476443
  72.8938721   8.0485091  71.8497123  72.5280907   9.1478989  70.8753276
  73.8858372   5.9326590  69.9003766  74.7084441   5.4587068  69.7782656
  74.1296436   6.7117074  70.4002452  72.5266607   8.9614849  60.1966667
  73.2474969   9.3396102  59.6930384  71.9031911   9.6803726  60.3001645
  76.6697729   9.6659998  61.1325000  76.8861344  10.5484636  60.8313828
  76.1891797   9.2746211  60.4030642  71.4096951  12.6245711  67.7095744
  71.2641532  12.9386014  68.6020026  70.9322154  13.2430611  67.1566643
  73.2693334   9.6148259  67.7576634  73.2554902   8.7189352  67.4208932
  73.9865762   9.6218923  68.3914920  75.1219464  10.0485599  69.8029761
  74.8637242  10.9702670  69.8014092  74.5904505   9.6516034  70.4930225
  80.0665653  23.1536386  62.5819847  80.2402531  22.5882809  61.8293699
  80.5594544  23.9537281  62.3999337  65.8842613  15.1651055  70.6483405
  65.3396081  15.9410863  70.7803680  66.7621963  15.5121860  70.4902527
  72.6730230   8.4962639  63.0264204  72.7946141   7.5679285  63.2255092
  72.3832272   8.5101325  62.1142519  75.5421420   6.1817550  66.1630924
  75.5643117   6.2456883  65.2082903  75.9589479   5.3422058  66.3571430
  85.9205044  15.9172809  64.2010146  86.3636190  15.1680134  63.8029270
  85.0431555  15.9082946  63.8183878  81.0540826  22.4703151  59.6816745
  81.7491730  23.0909843  59.9004060  81.3963976  21.6198502  59.9569123
  66.6708635  14.2920952  73.5413562  65.9290371  14.4403587  74.1278193
  66.3501379  14.5529217  72.6780312  82.9532249  19.9202856  61.2104076
  83.4783573  20.2590129  60.4853396  82.8654601  18.9849872  61.0267210
  74.6152297  23.8336930  73.3393952  74.9239424  23.5886077  74.2116652
  75.4127780  24.0383568  72.8512823  74.6372910  25.9874839  65.5699329
  74.1977900  25.4951218  66.2632186  75.3881026  25.4447807  65.3291404
  67.1165249  22.1786380  65.5723957  67.9423268  21.8790152  65.1922601
  66.7659301  21.4094003  66.0213746  72.0846782  21.5312849  67.6421631
  71.4626791  20.8683554  67.3423858  72.7551649  21.5573980  66.9595278
  65.3173854  20.0972707  66.5312891  64.4805762  19.6694881  66.3496892
  65.2897499  20.2905150  67.4683682  72.1571309  10.0094637  77.2354137
  72.2059465  10.8856759  76.8531906  72.6993823   9.4672030  76.6625780
  82.6426155  20.5535760  76.5155274  81.8521699  20.5359899  75.9759773
  82.4059509  21.0924054  77.2704310  82.7624030  17.4028226  73.8288002
  82.8122035  17.2378234  74.7703525  82.6537953  16.5355485  73.4385883
  71.6460289  20.0816772  61.1180091  71.7948409  20.7652236  60.4646764
  72.4526732  20.0621862  61.6329547  80.0527792  13.3859154  75.1447309
  80.9537655  13.2465619  74.8531307  80.1275767  13.5513609  76.0845486
  74.3870598  10.7626009  73.9900495  73.5173907  11.0559575  73.7183084
  74.6230078  11.3466454  74.7107759  84.2642227  19.8225168  74.0730024
  83.9727035  20.1855148  74.9093485  83.6514358  19.1092176  73.8943356
  85.4637909  17.3878047  66.5932594  86.2984800  17.8267852  66.7570154
  85.5997038  16.9116701  65.7740840  82.5129415  14.9457782  72.5410082
  82.9883537  15.1385429  71.7328933  81.5894980  15.0016968  72.2953465
  69.4012922  16.1081950  62.1241160  69.1558964  15.2044280  62.3221370
  69.5708836  16.1099100  61.1820638  77.0909631   6.9805626  71.5065916
  77.6091575   7.7166653  71.1812404  76.7364764   7.2869619  72.3412675
  68.6708569  11.8410307  59.6227322  67.9777814  11.9154662  58.9667357
  68.4260321  11.0770651  60.1448838  75.1455694  22.5764902  58.5891839
  74.5729661  23.1955089  58.1362310  75.7188488  23.1264264  59.1231761
  81.2131084  11.8223542  70.7738387  82.1648507  11.9221640  70.7950611
  81.0434534  11.0301811  71.2836472  79.2345463   8.9079126  70.9597788
  78.6395396   9.1884138  70.2644277  78.9495160   9.3973027  71.7314529
  78.3652954  22.8602052  59.7200421  79.2983627  22.7947614  59.9233296
  78.2776167  23.6958319  59.2614953  80.9940971  22.1767923  56.6804368
  80.9154602  21.8427786  57.5740126  81.8150637  22.6689691  56.6795841
  83.6919162  15.0429662  69.8880687  83.6595482  14.1045663  70.0740371
  84.3019785  15.1213699  69.1546512  75.5302493  13.9125715  55.9307891
  76.4761597  13.7831923  55.9996309  75.1516738  13.1740377  56.4077319
  83.8413650  11.8340706  69.9338970  83.3252699  11.0499162  69.7468899
  84.7253599  11.5059422  70.0985490  89.5095712  16.1045669  69.0286724
  90.2399100  15.8430957  69.5894427  88.9002657  15.3674391  69.0688792
  87.5911009  14.2453532  69.6261175  86.8644172  14.1109496  69.0177667
  87.1758296  14.5530360  70.4317893  75.4141185  17.9643461  77.3908548
  76.3344195  18.1422060  77.5848595  75.3790768  17.0199507  77.2388247
  73.7145410  11.8375691  55.8662776  72.8076865  11.5408804  55.9425490
  73.9921391  11.5405510  54.9997063  64.6323350  13.1582055  66.3161823
  64.3126135  12.3047363  66.0236197  64.0856778  13.3730633  67.0719790
  68.4103258  15.8744496  70.0331329  68.6289267  16.8061604  70.0519363
  68.8229032  15.5152470  70.8186133  75.3307476   6.3812581  62.0207018
  74.5208204   6.0359666  62.3962264  76.0191892   6.0720125  62.6094629
  73.2831123  11.4477702  79.4234078  73.1827850  12.3972059  79.3546169
  73.0652665  11.1195941  78.5510148  72.4844194   8.6962627  56.0074755
  73.3463358   9.0217525  56.2670573  72.6694539   7.9094123  55.4947821
  64.5011610  16.7784966  68.2854944  63.8075082  16.3638919  67.7724899
  65.2484601  16.8205503  67.6888363  80.6376831   7.5691153  63.1509978
  80.0575500   8.2275957  62.7688031  80.3712764   6.7468498  62.7397396
  79.0880397   6.9696211  65.3531299  79.5880176   7.0812745  64.5445618
  79.7316005   6.6657264  65.9932107  73.1462393  14.8774840  78.2399140
  72.6629475  15.6775201  78.4463029  73.2323332  14.8882785  77.2866584
  66.4148353  16.7103220  66.1620959  66.3919041  16.8090907  65.2102842
  66.7248989  17.5568371  66.4838125  69.0735731  18.7679375  70.2767574
  70.0278984  18.7363318  70.2097505  68.8748254  18.3069999  71.0917799
  69.6635113  17.3380491  72.8438371  70.4828002  17.8324570  72.8673209
  69.9371920  16.4212459  72.8155939  79.4201709   9.7291244  62.2066327
  78.5327564  10.0140894  61.9886521  79.8355698   9.5685007  61.3593604
  82.7716245   9.7537765  65.9220666  83.5476635  10.2434217  66.1945283
  82.0464379  10.1795819  66.3792535  85.2088804  10.4665384  66.9794607
  85.8033294  10.2261120  66.2687915  85.2815387   9.7472514  67.6068143
  67.4285959  24.3098995  67.2937771  67.2940427  23.5499396  66.7275769
  67.0118022  25.0339895  66.8266560  78.5644922  19.4935918  56.3014347
  79.2680772  19.6985921  56.9172002  77.8407571  20.0612680  56.5663430
  79.3942733  15.2445779  62.4216617  79.3377934  15.7014331  61.5824249
  79.9471075  14.4836464  62.2439460  83.2047539  11.0335511  63.2466736
  82.9484473  10.6332147  64.0774944  82.5800407  11.7479305  63.1216876
  87.5159876  13.7731585  65.7538028  86.9559434  13.8424774  66.5269590
  86.9103380  13.5972569  65.0337524  70.5855085  25.2068312  67.5056214
  70.4687469  26.1513744  67.4034904  69.7647531  24.9041873  67.8942013
  80.4731620  19.9318447  58.3512807  81.3077224  19.4999646  58.1690282
  80.3115963  19.7600461  59.2789701  80.1277512  16.4350561  59.7169146
  80.0726316  16.2694832  58.7757590  79.5023567  17.1426594  59.8731336
  64.9170027  11.6718625  73.5430568  65.5628891  11.1617579  74.0317793
  64.7087178  12.4087307  74.1173994  77.4423419  18.7399473  79.0422709
  78.3114579  18.9140125  78.6809344  76.9630171  19.5593889  78.9198438
  73.4373637   5.9358670  59.2954464  73.4252307   6.8800510  59.4522735
  74.3297059   5.7528815  59.0013926  71.6109599  25.8596574  70.7212142
  72.5136846  25.8920184  71.0378637  71.3846969  24.9297025  70.7358478
  73.3663201  24.6127560  67.3822221  72.4158832  24.6129422  67.2686593
  73.6695688  23.8660295  66.8658256  69.2567518   8.8186242  77.6405583
  70.1198979   8.4623047  77.8508907  68.6832929   8.4800137  78.3280987
  89.1015895  30.4488099  68.4467984  89.7394305  30.3294846  67.7431324
  88.9836738  31.3968942  68.5055936  85.9105601  30.4015527  68.3829508
  85.5724113  30.2856591  67.4950043  86.7795369  30.0006692  68.3630514
  81.7692417  32.2551003  64.3726399  81.2057282  32.1640940  63.6042687
  81.6544812  31.4350907  64.8528892  86.3925384  31.5550378  74.3415714
  86.3814025  31.1603177  73.4696217  86.5546024  30.8216451  74.9349485
  79.3156849  33.7502195  67.2110620  80.1078141  33.4093019  66.7956919
  79.5553499  33.8597170  68.1312773  87.3491976  35.9221971  59.6840864
  86.6979955  36.5076051  59.2974878  88.1436338  36.4528166  59.7435902
  81.2747603  33.0111108  60.0827998  82.0478479  32.4640095  59.9440874
  81.6273002  33.8755357  60.2942460  83.1132645  34.3387490  73.2894898
  82.8222511  35.2433121  73.1741564  83.7489630  34.3804018  74.0038967
  84.0388852  31.7164339  69.8796257  84.6352424  31.4920361  69.1653220
  84.0963824  30.9749084  70.4821705  83.6113881  29.1703774  57.7146448
  83.8639401  28.6485295  56.9529911  82.6738440  29.0069919  57.8173132
  88.6557163  28.1739552  65.5221192  89.4420253  27.7558976  65.1711609
  88.9195868  29.0785645  65.6902840  88.8267241  33.6112403  60.2209848
  88.1913074  33.6847029  60.9330753  88.4964647  34.2006002  59.5428928
  94.0565590  28.1114786  66.4254170  94.7890762  27.5414002  66.6592000
  93.3004946  27.7236386  66.8660676  83.3310169  31.0731880  59.9170823
  83.2146427  30.3976783  60.5851908  83.4412429  30.5864254  59.1002976
  85.6741710  30.5342027  63.6217513  85.3099917  30.0072648  64.3330434
  86.5308826  30.1440496  63.4483998  91.5791011  21.8236360  70.8848779
  91.2474336  22.6931771  70.6609994  90.9836624  21.5072644  71.5642809
  85.3147197  25.5631927  58.6178861  85.4821600  26.4312163  58.9849332
  85.1244366  25.7259208  57.6940150  88.0722530  34.0248906  70.2844691
  87.7723253  34.9273944  70.1760499  87.7273590  33.7581089  71.1365844
  81.5235012  30.4762703  66.3181396  80.5985508  30.3438917  66.5259088
  81.7719425  31.2556922  66.8151338  91.4719674  26.5431446  67.9642129
  90.5636551  26.4746854  67.6700890  91.4207270  27.0203391  68.7923954
  85.2936418  28.0189584  59.6025528  85.1736043  28.4646635  60.4411008
  84.5989006  28.3674902  59.0439066  78.8843823  30.1195976  67.1525185
  79.0136204  30.3730455  68.0664597  78.2041274  30.7123684  66.8329840
  83.0543310  40.7893226  63.2515659  82.9767340  41.7401051  63.3304140
  82.4504954  40.4439099  63.9090585  85.5460540  27.9621091  75.9077026
  84.7693874  28.5215012  75.8979891  86.1851103  28.4477874  76.4291896
  93.3381321  24.7447884  69.7420003  92.6955701  25.0380417  69.0959797
  92.8336249  24.6300805  70.5473199  90.9921484  28.4911057  60.4305862
  91.9039340  28.7238444  60.2553559  90.4831131  29.0748102  59.8680941
  83.8006912  30.7706545  75.4694993  84.5421597  31.3091589  75.1929817
  83.0943898  31.3972834  75.6266545  89.2762252  32.9135685  74.0667154
  89.6845608  32.4718096  73.3221787  88.5539513  32.3388313  74.3201347
  85.6293322  27.8508292  71.4400711  86.4754517  28.2747706  71.5835360
  85.5691960  27.1941916  72.1339275  89.5991067  33.4736876  67.8219443
  88.9699929  33.6382590  67.1195511  89.2116729  33.8878485  68.5930407
  93.4780298  34.4091314  65.1763807  92.7931337  34.7890215  64.6260840
  93.5624148  35.0186640  65.9095755  88.7792767  25.5112660  73.0981885
  88.5353699  26.2654721  72.5616161  89.0552698  25.8898008  73.9329132
  90.7331230  32.0551273  71.7759151  90.9448125  32.6983033  71.0993532
  90.6860978  31.2213589  71.3081081  88.3357459  24.6669093  68.6795723
  87.4741938  24.9650347  68.9712460  88.3619894  24.8839492  67.7476755
  85.1519028  33.2111284  65.0869528  85.6157374  33.4898987  64.2974151
  84.8875827  32.3094729  64.9042619  82.0443109  32.7582766  68.0249292
  82.6144467  33.1870034  67.3866776  82.6351221  32.4765350  68.7233477
  84.0887914  29.3334436  61.8959094  84.7911958  29.7855480  62.3633020
  83.7568543  28.6918255  62.5238987  82.5368276  27.9246193  76.2710303
  81.9066937  28.6062474  76.5045700  82.4304364  27.8129275  75.3263441
  77.8313248  27.5917989  67.1976227  77.0412302  27.8475518  66.7216338
  78.3224496  28.4066327  67.3028268  91.8477058  34.9323228  69.9481508
  92.6694502  34.5303415  69.6664190  91.8439461  34.8291462  70.8997624
  79.7827994  27.9562568  64.1559704  78.9859157  28.0681263  64.6743200
  79.5553586  28.2949220  63.2900594  85.6133661  34.4807271  72.1042219
  85.6778094  34.9427679  72.9400390  84.9044585  33.8504636  72.2324528
  76.1150951  27.8448479  69.6291218  76.3658990  28.7295489  69.8948794
  76.6510500  27.6653081  68.8566310  99.9383051  31.2761977  66.2966479
  99.1846759  30.7069375  66.1410484 100.0730592  31.2424641  67.2437114
  85.3281679  36.1475379  61.9721199  85.1927354  36.9926915  62.4006047
  85.8691492  36.3494657  61.2087133  81.8149019  22.2266959  78.6335554
  81.4215964  21.6733157  79.3083198  82.6315159  22.5377537  79.0242072
  78.7811076  33.6650817  62.5449124  79.2935597  34.4594067  62.6954689
  79.4333789  32.9677107  62.4782725  80.5905961  36.7816573  64.6271877
  80.7672590  37.7034538  64.4392861  81.3862795  36.4674993  65.0566257
  84.7316980  23.6424838  76.2255811  85.4726693  24.2431991  76.1460273
  84.9634903  22.9002476  75.6673853  79.8758318  28.8281205  74.5034040
  79.7611833  27.9266462  74.8041139  79.0202835  29.0744902  74.1518857
  86.9550155  36.7698945  76.1021541  86.5114010  35.9835324  75.7842445
  87.6167369  36.9578096  75.4365432  81.7137277  38.2994747  70.6282219
  82.2644702  38.1711810  69.8559213  80.8748753  38.5989636  70.2777112
  89.0531394  37.0501745  74.1302942  89.0349869  37.8710626  73.6383211
  89.9751314  36.9255821  74.3553083  85.5104448  34.5645875  74.9726451
  86.0432784  33.8034163  74.7425759  84.9818529  34.2719527  75.7150605
  88.6774143  19.6705941  70.5020092  88.3338412  20.5607583  70.4259203
  89.0453105  19.4807598  69.6389677  76.7459993  31.9939471  63.3208694
  77.5835215  32.4036480  63.1042402  76.9238261  31.0538913  63.2908888
  88.6424425  29.6614552  59.0092527  88.1271049  30.4319157  59.2480915
  88.3701734  28.9879688  59.6325589  86.2271536  24.5064253  64.0677766
  85.3713133  24.1171103  63.8883404  86.6398488  24.5856214  63.2077551
  87.7570683  22.0410596  68.4669326  87.2535479  22.0040731  67.6537131
  88.0501290  22.9503339  68.5265982  84.0013569  22.1249326  67.4735507
  84.8666566  21.9292134  67.1141397  84.0691078  21.8959678  68.4004864
  93.6158699  32.4146907  60.9445701  92.8388142  32.0758066  60.5000863
  94.2950180  32.4199530  60.2700666  88.4310729  27.5341644  60.8352309
  88.1260864  27.8487793  61.6862452  89.3841171  27.6123064  60.8779642
  86.8757160  33.6931867  62.4845263  86.3478522  32.9584627  62.1718500
  86.3744663  34.4706544  62.2385231  91.8550006  31.8880888  67.6012309
  91.1973681  32.5780149  67.6892438  92.6590406  32.2777320  67.9446295
  81.6075888  24.3551534  64.8451874  82.1819640  24.1326715  64.1125067
  82.1946870  24.4240228  65.5980475  90.6655465  30.2425261  65.6516251
  91.1787347  30.8755252  66.1537960  91.3156689  29.6426456  65.2859611
  81.9345475  26.3855995  58.8647759  81.0982787  26.7230681  59.1857034
  81.7950245  26.2504974  57.9274896  83.9098556  21.2292783  63.5726944
  83.2562968  20.9141800  62.9483558  83.8679030  20.6068523  64.2986766
  85.0209761  31.5112078  55.4880236  84.1136822  31.2801331  55.6871385
  85.5180793  30.7149697  55.6754217  87.9277839  40.2209585  58.4076922
  87.2539538  40.5241282  59.0161880  88.3143661  41.0238665  58.0582379
  87.1436296  27.7174716  67.8974591  86.2258857  27.9389663  67.7396279
  87.5596440  27.7921027  67.0386298  87.9271344  29.1166132  63.0277271
  88.6743163  29.6287529  62.7184393  88.1962933  28.7950185  63.8881665
  86.1997994  31.6124673  60.0104226  85.2909213  31.3283705  60.1076695
  86.2293078  32.0323751  59.1507533  91.4317261  35.2231262  63.7795393
  90.9779589  34.3822172  63.8360584  90.8011228  35.8592660  64.1170173
  90.3750181  26.1523248  65.0096061  89.6372938  25.6400634  65.3406303
  90.6276955  25.7123630  64.1979338  89.8750201  37.0607759  64.7145211
  90.1673175  37.6212816  63.9957577  90.3848821  37.3536320  65.4698370
  90.4761808  18.9299500  65.6037830  90.7820685  18.0696863  65.3163745
  91.2014413  19.5217120  65.4036824  76.7686164  29.3330187  63.9919428
  76.5710564  28.7399547  63.2670494  76.2132828  29.0282397  64.7095367
  84.7482888  29.2253293  66.1114021  84.8031498  28.2727130  66.0356498
  83.9374090  29.3812732  66.5955319  85.8974082  33.1533416  57.3492304
  85.4593512  32.4369275  56.8897942  86.6384523  33.3809531  56.7877396
  82.6875248  27.8430353  63.8704400  81.8743113  28.1424523  64.2769592
  83.1834242  27.4486042  64.5878882  84.8383826  37.8388110  65.8038665
  84.7960005  38.0648956  64.8747197  85.7546525  37.6051484  65.9524466
  88.2849460  28.3072177  72.7019294  88.6398847  28.5343650  73.5613760
  88.9321591  28.6390554  72.0796549  94.0147197  31.4290613  63.4068623
  93.8765095  31.6192209  62.4789812  93.6583415  32.1909996  63.8636674
  82.1789323  25.4148708  69.4865635  82.8188702  25.2737467  68.7888598
  81.3466853  25.1283222  69.1104237  94.0416576  33.4967140  68.4179894
  94.4753083  33.4042429  69.2662948  94.7548157  33.4724641  67.7799910
  82.9549627  34.7151139  65.6000627  83.7490225  34.2201459  65.3983202
  82.2441319  34.1869002  65.2368333  87.7744471  37.0969234  69.9512995
  87.8281493  37.6660171  70.7190711  86.9059252  37.2671119  69.5867032
  79.2632390  28.8594221  61.6760380  78.3329978  28.7978676  61.8930342
  79.3589862  28.3370173  60.8797021  79.1817939  25.3849033  64.2638622
  79.4424756  26.2994367  64.1547782  80.0035111  24.9173476  64.4135234
  80.6542864  26.7986791  71.4337446  81.3265918  26.5904153  70.7850095
  79.8272651  26.6008877  70.9942678  94.9032126  33.5390841  70.9512780
  95.0968016  34.4436651  71.1972055  94.8032744  33.0798260  71.7851365
  86.5568436  23.4248731  73.4503107  85.9096352  24.1238681  73.3567583
  87.3269452  23.8584875  73.8179355  89.9647234  33.6897584  76.5253660
  89.8132741  33.4608135  75.6083744  89.9551914  34.6468185  76.5385005
  86.7332571  31.2629496  71.5099927  87.6624631  31.4140656  71.3368894
  86.3123601  31.3513517  70.6548573  85.5320903  35.2880161  69.2798464
  85.3931988  34.9198945  70.1524403  84.7435499  35.8027800  69.1082422
  86.1269055  40.3889257  60.6224001  86.3020810  39.9177300  61.4369624
  85.4401843  41.0155023  60.8505262  87.0826118  34.6661763  66.6687302
  86.7475950  34.6262533  67.5644952  86.5830063  34.0006479  66.1957712
  81.0570362  30.0729394  72.1939883  80.9190160  29.3409632  72.7951422
  81.9675285  29.9838294  71.9124071  90.0185309  32.0117798  56.9424362
  89.4014480  31.2864626  56.8457415  89.5501798  32.7727158  56.5991436
  83.6852662  29.7849353  71.6823563  84.3952281  29.1442545  71.6410181
  83.6421971  30.0362248  72.6049744  91.6739441  36.7216706  74.6030142
  91.6151987  36.0375926  73.9360725  92.0758959  37.4635696  74.1510768
  82.3981596  26.7714571  73.5019202  81.8618953  26.3205309  74.1540799
  81.8098305  26.9060480  72.7589667  80.6930140  43.5378620  67.3963861
  80.9326738  44.1697144  68.0742880  79.8499336  43.1866660  67.6829220
  81.8083855  26.2303222  56.0645666  80.9313322  26.1092023  55.7007913
  82.2841608  25.4389300  55.8124555  91.6756848  34.6856290  72.8344122
  90.7883627  34.3482212  72.9570521  92.2455399  33.9539321  73.0712887
  73.3285995  31.0180382  66.1587173  74.0157035  30.7042112  65.5708189
  73.1734124  31.9221746  65.8854425  78.1320718  25.9070578  70.5872197
  78.0478906  25.2996248  69.8522607  77.3103424  26.3979597  70.5881693
  85.2058002  39.3457742  69.8005365  85.1328173  40.1512714  70.3124670
  84.7635395  39.5449708  68.9753386  84.9947781  38.5829512  63.3108187
  84.2115303  39.1251193  63.4046411  85.6940527  39.1003492  63.7102428
  88.3044431  24.3924142  65.9542392  88.8013131  23.6394104  65.6343462
  87.5331413  24.4288459  65.3885601  96.1574189  30.0964507  67.5960684
  96.1464065  30.9789223  67.2254617  95.2891568  29.7436058  67.4015221
  87.6656685  39.2444576  71.9563524  88.3784657  39.8792041  71.8839425
  87.1746714  39.3408442  71.1403526  89.3874212  33.1495829  63.5280815
  88.4530491  33.2697292  63.3585520  89.5650881  32.2468296  63.2640825
  84.8879400  26.5341525  65.6814077  84.5177188  25.9812565  66.3694982
  85.3838493  25.9299658  65.1289077  92.7746764  28.9913148  64.0630850
  93.2407216  29.8241140  63.9891152  93.2254264  28.5258130  64.7676108
  82.7168599  36.9939020  72.7769095  83.4178058  37.6275503  72.9298489
  82.2463714  37.3353751  72.0164734  90.8422995  35.3356970  61.0617002
  91.1182839  35.2213564  61.9710876  89.9727493  34.9374455  61.0229175
  90.7463426  21.3593735  68.1021751  89.8326506  21.5897962  68.2703958
  91.1756528  21.4432180  68.9535783  90.5169885  29.5483627  70.6021645
  89.8641335  29.7959535  69.9474098  90.8950265  28.7347766  70.2684122
  87.4777059  39.5843321  64.7049815  87.6599453  38.7664977  65.1677568
  88.3010045  39.8011013  64.2674705  87.8119224  38.5111506  61.9664864
  88.3406991  38.0003960  61.3535026  88.0747444  38.1954036  62.8310397
  86.5657458  30.2903438  77.0887682  85.8898095  30.1897568  77.7590057
  87.3885092  30.1342652  77.5523679  78.3136317  36.5275375  69.7100197
  78.8989754  35.7819063  69.8428101  78.1161155  36.8379332  70.5936861
  81.1674972  39.5626622  64.7262640  80.4985347  40.0472750  64.2426680
  81.0287842  39.8095843  65.6406018  72.9053972  29.0980975  68.4304640
  72.9438071  28.5644566  69.2241759  72.3994264  28.5716181  67.8115618
  85.3080241  41.5970366  71.3245298  85.8598549  41.7601987  72.0894383
  85.6486434  42.1874804  70.6525323  80.2844734  23.9445516  71.9267183
  80.3486060  24.8060347  71.5144580  80.2211854  23.3319517  71.1939541
  79.7597006  26.0168648  75.5740217  80.3869045  25.6345726  76.1877741
  78.9024925  25.7982850  75.9395909  90.1591115  36.4231623  77.1793952
  90.7031019  37.0361582  76.6848907  89.5777960  36.9811202  77.6960965
  76.5362549  27.8245077  61.5058572  76.8315990  26.9155756  61.4525625
  75.6350585  27.8032817  61.1839574  88.4448628  39.5452341  68.3108980
  88.3199767  38.7442081  67.8019926  89.1027719  40.0398535  67.8222950
  80.0656796  25.9001074  67.4886120  79.3443382  26.5137042  67.3493594
  80.8550052  26.4358839  67.4102766  90.5083536  37.3461362  69.9388530
  89.5613872  37.2266713  69.8666857  90.8566309  36.4583860  70.0214792
  82.8683110  23.2355500  73.7626772  83.3917512  23.4817797  74.5253081
  82.6495443  24.0675535  73.3429909  78.2650391  25.5059175  61.6297897
  77.9363097  24.6256554  61.4473003  78.6189761  25.4506844  62.5174286
  87.5129970  37.1414078  66.1392882  87.3654932  36.2130785  66.3200453
  88.3383463  37.1634168  65.6549958  81.3792214  25.7932145  61.9973375
  81.7188286  26.3218066  61.2751983  81.8264334  26.1312551  62.7731941
  91.1164091  37.9642636  67.2257755  92.0410639  37.7585498  67.0882206
  90.9479395  37.7159038  68.1347097  84.0735655  24.1769196  71.4476443
  83.7332475  23.3777009  71.8497123  83.3674661  24.4770906  70.8753276
  84.7252127  21.2618508  69.9003766  85.5478196  20.7878986  69.7782656
  84.9690190  22.0408992  70.4002452  83.3660361  24.2906766  60.1966667
  84.0868724  24.6688019  59.6930384  82.7425665  25.0095643  60.3001645
  87.5091484  24.9951915  61.1325000  87.7255098  25.8776553  60.8313828
  87.0285551  24.6038129  60.4030642  82.2490705  27.9537629  67.7095744
  82.1035286  28.2677932  68.6020026  81.7715909  28.5722529  67.1566643
  84.1087088  24.9440177  67.7576634  84.0948657  24.0481270  67.4208932
  84.8259516  24.9510840  68.3914920  85.9613219  25.3777517  69.8029761
  85.7030997  26.2994587  69.8014092  85.4298259  24.9807951  70.4930225
  90.9059408  38.4828304  62.5819847  91.0796285  37.9174726  61.8293699
  91.3988299  39.2829199  62.3999337  76.7236367  30.4942973  70.6483405
  76.1789836  31.2702781  70.7803680  77.6015717  30.8413777  70.4902527
  83.5123984  23.8254557  63.0264204  83.6339895  22.8971203  63.2255092
  83.2226026  23.8393243  62.1142519  86.3815175  21.5109467  66.1630924
  86.4036871  21.5748800  65.2082903  86.7983234  20.6713976  66.3571430
  96.7598799  31.2464727  64.2010146  97.2029945  30.4972052  63.8029270
  95.8825309  31.2374863  63.8183878  91.8934580  37.7995068  59.6816745
  92.5885485  38.4201761  59.9004060  92.2357730  36.9490420  59.9569123
  77.5102389  29.6212869  73.5413562  76.7684125  29.7695505  74.1278193
  77.1895134  29.8821135  72.6780312  93.7926003  35.2494774  61.2104076
  94.3177327  35.5882047  60.4853396  93.7048356  34.3141789  61.0267210
  85.4546052  39.1628848  73.3393952  85.7633178  38.9177994  74.2116652
  86.2521534  39.3675486  72.8512823  85.4766664  41.3166757  65.5699329
  85.0371654  40.8243136  66.2632186  86.2274781  40.7739725  65.3291404
  77.9559003  37.5078298  65.5723957  78.7817023  37.2082070  65.1922601
  77.6053055  36.7385920  66.0213746  82.9240536  36.8604766  67.6421631
  82.3020545  36.1975471  67.3423858  83.5945403  36.8865898  66.9595278
  76.1567608  35.4264624  66.5312891  75.3199516  34.9986799  66.3496892
  76.1291253  35.6197068  67.4683682  82.9965064  25.3386554  77.2354137
  83.0453219  26.2148677  76.8531906  83.5387578  24.7963947  76.6625780
  93.4819909  35.8827678  76.5155274  92.6915453  35.8651816  75.9759773
  93.2453264  36.4215971  77.2704310  93.6017784  32.7320144  73.8288002
  93.6515789  32.5670151  74.7703525  93.4931708  31.8647403  73.4385883
  82.4854043  35.4108690  61.1180091  82.6342163  36.0944154  60.4646764
  83.2920487  35.3913780  61.6329547  90.8921547  28.7151072  75.1447309
  91.7931410  28.5757537  74.8531307  90.9669521  28.8805527  76.0845486
  85.2264352  26.0917927  73.9900495  84.3567662  26.3851493  73.7183084
  85.4623832  26.6758372  74.7107759  95.1035981  35.1517085  74.0730024
  94.8120790  35.5147066  74.9093485  94.4908113  34.4384094  73.8943356
  96.3031664  32.7169965  66.5932594  97.1378555  33.1559769  66.7570154
  96.4390792  32.2408618  65.7740840  93.3523169  30.2749700  72.5410082
  93.8277291  30.4677346  71.7328933  92.4288735  30.3308886  72.2953465
  80.2406676  31.4373867  62.1241160  79.9952718  30.5336197  62.3221370
  80.4102591  31.4391018  61.1820638  87.9303386  22.3097544  71.5065916
  88.4485330  23.0458571  71.1812404  87.5758519  22.6161537  72.3412675
  79.5102324  27.1702225  59.6227322  78.8171569  27.2446580  58.9667357
  79.2654076  26.4062568  60.1448838  88.1815980  18.7297826  67.0266812
  88.4617734  18.0621015  67.6527239  88.9666587  18.9226922  66.5141476
  85.9849449  37.9056820  58.5891839  85.4123416  38.5247007  58.1362310
  86.5582242  38.4556182  59.1231761  92.0524838  27.1515460  70.7738387
  93.0042261  27.2513558  70.7950611  91.8828289  26.3593729  71.2836472
  90.0739218  24.2371043  70.9597788  89.4789150  24.5176056  70.2644277
  89.7888915  24.7264944  71.7314529  89.2046708  38.1893970  59.7200421
  90.1377382  38.1239532  59.9233296  89.1169921  39.0250237  59.2614953
  91.8334725  37.5059840  56.6804368  91.7548357  37.1719704  57.5740126
  92.6544392  37.9981608  56.6795841  94.5312916  30.3721580  69.8880687
  94.4989236  29.4337581  70.0740371  95.1413540  30.4505617  69.1546512
  86.3696247  29.2417633  55.9307891  87.3155352  29.1123841  55.9996309
  85.9910492  28.5032295  56.4077319  94.6807405  27.1632623  69.9338970
  94.1646453  26.3791080  69.7468899  95.5647353  26.8351340  70.0985490
  92.3418132  20.9073639  65.8934783  92.1442953  20.5988727  66.7778115
  92.9517837  21.6335278  66.0232713 100.3489466  31.4337587  69.0286724
 101.0792855  31.1722875  69.5894427  99.7396412  30.6966309  69.0688792
  98.4304763  29.5745449  69.6261175  97.7037927  29.4401414  69.0177667
  98.0152050  29.8822278  70.4317893  86.2534940  33.2935379  77.3908548
  87.1737949  33.4713978  77.5848595  86.2184523  32.3491424  77.2388247
  84.5539164  27.1667609  55.8662776  83.6470620  26.8700722  55.9425490
  84.8315145  26.8697427  54.9997063  75.4717105  28.4873973  66.3161823
  75.1519889  27.6339281  66.0236197  74.9250533  28.7022551  67.0719790
  79.2497012  31.2036414  70.0331329  79.4683022  32.1353521  70.0519363
  79.6622786  30.8444388  70.8186133  86.1701230  21.7104499  62.0207018
  85.3601958  21.3651584  62.3962264  86.8585647  21.4012043  62.6094629
  88.0991778  20.7882546  63.6431314  88.6522817  21.2077999  64.3021337
  88.3361865  19.8618294  63.6854270  84.1224878  26.7769619  79.4234078
  84.0221604  27.7263976  79.3546169  83.9046420  26.4487858  78.5510148
  83.3237949  24.0254544  56.0074755  84.1857113  24.3509443  56.2670573
  83.5088293  23.2386040  55.4947821  75.3405365  32.1076884  68.2854944
  74.6468836  31.6930837  67.7724899  76.0878356  32.1497421  67.6888363
  91.4770585  22.8983071  63.1509978  90.8969254  23.5567875  62.7688031
  91.2106518  22.0760415  62.7397396  89.9274152  22.2988129  65.3531299
  90.4273930  22.4104663  64.5445618  90.5709760  21.9949181  65.9932107
  83.9856148  30.2066758  78.2399140  83.5023229  31.0067118  78.4463029
  84.0717087  30.2174703  77.2866584  77.2542107  32.0395138  66.1620959
  77.2312795  32.1382825  65.2102842  77.5642744  32.8860289  66.4838125
  79.9129485  34.0971293  70.2767574  80.8672739  34.0655235  70.2097505
  79.7142009  33.6361917  71.0917799  80.5028867  32.6672409  72.8438371
  81.3221756  33.1616488  72.8673209  80.7765675  31.7504377  72.8155939
  90.2595463  25.0583161  62.2066327  89.3721318  25.3432812  61.9886521
  90.6749452  24.8976925  61.3593604  93.6110000  25.0829682  65.9220666
  94.3870390  25.5726135  66.1945283  92.8858134  25.5087736  66.3792535
  96.0482558  25.7957301  66.9794607  96.6427049  25.5553037  66.2687915
  96.1209142  25.0764432  67.6068143  78.2679714  39.6390912  67.2937771
  78.1334182  38.8791313  66.7275769  77.8511776  40.3631812  66.8266560
  89.4038677  34.8227836  56.3014347  90.1074527  35.0277838  56.9172002
  88.6801326  35.3904598  56.5663430  90.2336487  30.5737697  62.4216617
  90.1771689  31.0306249  61.5824249  90.7864830  29.8128382  62.2439460
  94.0441293  26.3627429  63.2466736  93.7878227  25.9624065  64.0774944
  93.4194161  27.0771223  63.1216876  98.3553631  29.1023502  65.7538028
  97.7953189  29.1716692  66.5269590  97.7497134  28.9264487  65.0337524
  81.4248840  40.5360229  67.5056214  81.3081224  41.4805662  67.4034904
  80.6041286  40.2333791  67.8942013  91.3125374  35.2610365  58.3512807
  92.1470978  34.8291564  58.1690282  91.1509717  35.0892379  59.2789701
  90.9671266  31.7642478  59.7169146  90.9120070  31.5986750  58.7757590
  90.3417322  32.4718511  59.8731336  75.7563781  27.0010543  73.5430568
  76.4022645  26.4909497  74.0317793  75.5480933  27.7379224  74.1173994
  88.2817174  34.0691390  79.0422709  89.1508333  34.2432043  78.6809344
  87.8023925  34.8885807  78.9198438  84.2767392  21.2650587  59.2954464
  84.2646062  22.2092427  59.4522735  85.1690814  21.0820733  59.0013926
  82.4503354  41.1888491  70.7212142  83.3530601  41.2212102  71.0378637
  82.2240724  40.2588942  70.7358478  84.2056956  39.9419478  67.3822221
  83.2552587  39.9421339  67.2686593  84.5089442  39.1952212  66.8658256
  88.0919511  17.8593364  63.5500401  87.3251907  17.3051851  63.6957084
  88.5030216  17.9315233  64.4114553  80.0961272  24.1478160  77.6405583
  80.9592734  23.7914965  77.8508907  79.5226683  23.8092055  78.3280987
  99.9409649  45.7780016  68.4467984 100.5788059  45.6586764  67.7431324
  99.8230492  46.7260860  68.5055936  96.7499356  45.7307444  68.3829508
  96.4117867  45.6148509  67.4950043  97.6189124  45.3298609  68.3630514
  92.6086171  47.5842921  64.3726399  92.0451036  47.4932858  63.6042687
  92.4938566  46.7642825  64.8528892  97.2319139  46.8842296  74.3415714
  97.2207779  46.4895094  73.4696217  97.3939778  46.1508369  74.9349485
  90.1550603  49.0794112  67.2110620  90.9471895  48.7384937  66.7956919
  90.3947253  49.1889087  68.1312773  98.1885730  51.2513888  59.6840864
  97.5373710  51.8367969  59.2974878  98.9830093  51.7820083  59.7435902
  92.1141357  48.3403026  60.0827998  92.8872233  47.7932013  59.9440874
  92.4666756  49.2047275  60.2942460  93.9526400  49.6679408  73.2894898
  93.6616266  50.5725039  73.1741564  94.5883384  49.7095935  74.0038967
  94.8782607  47.0456256  69.8796257  95.4746179  46.8212279  69.1653220
  94.9357578  46.3041002  70.4821705  94.4507635  44.4995692  57.7146448
  94.7033156  43.9777213  56.9529911  93.5132194  44.3361837  57.8173132
  99.4950918  43.5031470  65.5221192 100.2814007  43.0850893  65.1711609
  99.7589622  44.4077562  65.6902840  99.6660995  48.9404320  60.2209848
  99.0306828  49.0138947  60.9330753  99.3358402  49.5297919  59.5428928
 104.8959345  43.4406703  66.4254170 105.6284517  42.8705920  66.6592000
 104.1398701  43.0528304  66.8660676  94.1703924  46.4023798  59.9170823
  94.0540182  45.7268701  60.5851908  94.2806184  45.9156172  59.1002976
  96.5135465  45.8633945  63.6217513  96.1493672  45.3364566  64.3330434
  97.3702581  45.4732414  63.4483998 102.4184765  37.1528277  70.8848779
 102.0868090  38.0223688  70.6609994 101.8230379  36.8364561  71.5642809
  96.1540952  40.8923844  58.6178861  96.3215354  41.7604081  58.9849332
  95.9638121  41.0551126  57.6940150  98.9116285  49.3540823  70.2844691
  98.6117008  50.2565862  70.1760499  98.5667344  49.0873007  71.1365844
  92.3628766  45.8054620  66.3181396  91.4379263  45.6730834  66.5259088
  92.6113180  46.5848839  66.8151338 102.3113429  41.8723364  67.9642129
 101.4030306  41.8038772  67.6700890 102.2601024  42.3495308  68.7923954
  96.1330173  43.3481502  59.6025528  96.0129798  43.7938553  60.4411008
  95.4382761  43.6966820  59.0439066  89.7237577  45.4487894  67.1525185
  89.8529959  45.7022373  68.0664597  89.0435029  46.0415602  66.8329840
  93.8937065  56.1185144  63.2515659  93.8161094  57.0692969  63.3304140
  93.2898708  55.7731016  63.9090585  96.3854294  43.2913009  75.9077026
  95.6087628  43.8506929  75.8979891  97.0244857  43.7769792  76.4291896
 104.1775075  40.0739802  69.7420003 103.5349455  40.3672335  69.0959797
 103.6730004  39.9592722  70.5473199 101.8315239  43.8202975  60.4305862
 102.7433095  44.0530362  60.2553559 101.3224886  44.4040019  59.8680941
  94.6400667  46.0998462  75.4694993  95.3815351  46.6383506  75.1929817
  93.9337652  46.7264751  75.6266545 100.1156006  48.2427603  74.0667154
 100.5239362  47.8010013  73.3221787  99.3933268  47.6680230  74.3201347
  96.4687076  43.1800210  71.4400711  97.3148272  43.6039623  71.5835360
  96.4085714  42.5233834  72.1339275 100.4384821  48.8028794  67.8219443
  99.8093683  48.9674508  67.1195511 100.0510483  49.2170403  68.5930407
 104.3174053  49.7383231  65.1763807 103.6325091  50.1182133  64.6260840
 104.4017902  50.3478558  65.9095755  99.6186522  40.8404578  73.0981885
  99.3747454  41.5946639  72.5616161  99.8946452  41.2189926  73.9329132
 101.5724985  47.3843190  71.7759151 101.7841880  48.0274950  71.0993532
 101.5254733  46.5505507  71.3081081  99.1751213  39.9961011  68.6795723
  98.3135693  40.2942265  68.9712460  99.2013648  40.2131410  67.7476755
  95.9912783  48.5403202  65.0869528  96.4551128  48.8190905  64.2974151
  95.7269581  47.6386646  64.9042619  92.8836864  48.0874683  68.0249292
  93.4538221  48.5161952  67.3866776  93.4744976  47.8057268  68.7233477
  94.9281669  44.6626354  61.8959094  95.6305712  45.1147398  62.3633020
  94.5962297  44.0210173  62.5238987  93.3762030  43.2538111  76.2710303
  92.7460691  43.9354392  76.5045700  93.2698118  43.1421192  75.3263441
  88.6707003  42.9209907  67.1976227  87.8806057  43.1767435  66.7216338
  89.1618250  43.7358245  67.3028268 102.6870812  50.2615146  69.9481508
 103.5088256  49.8595333  69.6664190 102.6833215  50.1583380  70.8997624
  90.6221748  43.2854486  64.1559704  89.8252912  43.3973180  64.6743200
  90.3947340  43.6241138  63.2900594  96.4527416  49.8099189  72.1042219
  96.5171848  50.2719596  72.9400390  95.7438340  49.1796554  72.2324528
  86.9544706  43.1740397  69.6291218  87.2052744  44.0587407  69.8948794
  87.4904254  42.9944999  68.8566310  96.1675434  51.4767297  61.9721199
  96.0321108  52.3218832  62.4006047  96.7085246  51.6786574  61.2087133
  92.6542773  37.5558877  78.6335554  92.2609719  37.0025075  79.3083198
  93.4708914  37.8669455  79.0242072  89.6204831  48.9942735  62.5449124
  90.1329352  49.7885985  62.6954689  90.2727544  48.2969025  62.4782725
  91.4299716  52.1108491  64.6271877  91.6066344  53.0326456  64.4392861
  92.2256549  51.7966910  65.0566257  95.5710734  38.9716756  76.2255811
  96.3120448  39.5723909  76.1460273  95.8028657  38.2294393  75.6673853
  90.7152072  44.1573123  74.5034040  90.6005587  43.2558380  74.8041139
  89.8596590  44.4036820  74.1518857  97.7943910  52.0990863  76.1021541
  97.3507764  51.3127242  75.7842445  98.4561124  52.2870014  75.4365432
  92.5531031  53.6286665  70.6282219  93.1038456  53.5003728  69.8559213
  91.7142507  53.9281554  70.2777112  99.8925148  52.3793663  74.1302942
  99.8743623  53.2002544  73.6383211 100.8145068  52.2547738  74.3553083
  96.3498202  49.8937793  74.9726451  96.8826539  49.1326081  74.7425759
  95.8212283  49.6011444  75.7150605  99.5167897  34.9997859  70.5020092
  99.1732167  35.8899500  70.4259203  99.8846860  34.8099516  69.6389677
  87.5853748  47.3231389  63.3208694  88.4228970  47.7328397  63.1042402
  87.7632015  46.3830831  63.2908888  99.4818180  44.9906470  59.0092527
  98.9664803  45.7611074  59.2480915  99.2095488  44.3171606  59.6325589
  97.0665291  39.8356170  64.0677766  96.2106887  39.4463021  63.8883404
  97.4792243  39.9148131  63.2077551  98.5964438  37.3702514  68.4669326
  98.0929233  37.3332649  67.6537131  98.8895044  38.2795256  68.5265982
  94.8407323  37.4541243  67.4735507  95.7060320  37.2584052  67.1141397
  94.9084832  37.2251595  68.4004864 104.4552454  47.7438824  60.9445701
 103.6781897  47.4049984  60.5000863 105.1343935  47.7491447  60.2700666
  99.2704483  42.8633562  60.8352309  98.9654619  43.1779711  61.6862452
 100.2234925  42.9414982  60.8779642  97.7150915  49.0223785  62.4845263
  97.1872276  48.2876545  62.1718500  97.2138418  49.7998461  62.2385231
 102.6943761  47.2172806  67.6012309 102.0367435  47.9072067  67.6892438
 103.4984160  47.6069237  67.9446295  92.4469642  39.6843451  64.8451874
  93.0213394  39.4618633  64.1125067  93.0340625  39.7532146  65.5980475
 101.5049220  45.5717178  65.6516251 102.0181101  46.2047170  66.1537960
 102.1550444  44.9718374  65.2859611  92.7739230  41.7147912  58.8647759
  91.9376542  42.0522599  59.1857034  92.6343999  41.5796892  57.9274896
  94.7492310  36.5584700  63.5726944  94.0956723  36.2433717  62.9483558
  94.7072784  35.9360441  64.2986766  95.8603515  46.8403995  55.4880236
  94.9530577  46.6093249  55.6871385  96.3574547  46.0441615  55.6754217
  98.7671594  55.5501503  58.4076922  98.0933293  55.8533199  59.0161880
  99.1537416  56.3530583  58.0582379  97.9830051  43.0466634  67.8974591
  97.0652612  43.2681581  67.7396279  98.3990194  43.1212944  67.0386298
  98.7665098  44.4458049  63.0277271  99.5136917  44.9579447  62.7184393
  99.0356688  44.1242102  63.8881665  97.0391748  46.9416590  60.0104226
  96.1302968  46.6575623  60.1076695  97.0686832  47.3615669  59.1507533
 102.2711016  50.5523180  63.7795393 101.8173343  49.7114090  63.8360584
 101.6404983  51.1884578  64.1170173 101.2143935  41.4815166  65.0096061
 100.4766692  40.9692552  65.3406303 101.4670709  41.0415547  64.1979338
 100.7143955  52.3899676  64.7145211 101.0066930  52.9504733  63.9957577
 101.2242576  52.6828237  65.4698370 101.3155563  34.2591418  65.6037830
 101.6214440  33.3988781  65.3163745 102.0408168  34.8509038  65.4036824
  87.6079919  44.6622104  63.9919428  87.4104319  44.0691465  63.2670494
  87.0526583  44.3574314  64.7095367  95.5876643  44.5545211  66.1114021
  95.6425252  43.6019047  66.0356498  94.7767845  44.7104650  66.5955319
  96.7367836  48.4825334  57.3492304  96.2987266  47.7661193  56.8897942
  97.4778277  48.7101449  56.7877396  93.5269002  43.1722271  63.8704400
  92.7136868  43.4716441  64.2769592  94.0227997  42.7777959  64.5878882
  95.6777580  53.1680027  65.8038665  95.6353759  53.3940874  64.8747197
  96.5940279  52.9343402  65.9524466  99.1243214  43.6364095  72.7019294
  99.4792602  43.8635568  73.5613760  99.7715345  43.9682472  72.0796549
 104.8540951  46.7582531  63.4068623 104.7158850  46.9484127  62.4789812
 104.4977170  47.5201914  63.8636674  93.0183077  40.7440626  69.4865635
  93.6582457  40.6029385  68.7888598  92.1860608  40.4575139  69.1104237
 104.8810331  48.8259058  68.4179894 105.3146837  48.7334347  69.2662948
 105.5941911  48.8016558  67.7799910  93.7943381  50.0443056  65.6000627
  94.5883980  49.5493377  65.3983202  93.0835073  49.5160920  65.2368333
  98.6138226  52.4261152  69.9512995  98.6675248  52.9952088  70.7190711
  97.7453007  52.5963037  69.5867032  90.1026145  44.1886138  61.6760380
  89.1723733  44.1270594  61.8930342  90.1983617  43.6662091  60.8797021
  90.0211694  40.7140951  64.2638622  90.2818511  41.6286284  64.1547782
  90.8428866  40.2465394  64.4135234  91.4936619  42.1278708  71.4337446
  92.1659672  41.9196070  70.7850095  90.6666405  41.9300794  70.9942678
 105.7425880  48.8682759  70.9512780 105.9361770  49.7728569  71.1972055
 105.6426498  48.4090178  71.7851365  97.3962191  38.7540649  73.4503107
  96.7490106  39.4530599  73.3567583  98.1663206  39.1876793  73.8179355
 100.8040989  49.0189501  76.5253660 100.6526495  48.7900053  75.6083744
 100.7945668  49.9760103  76.5385005  97.5726325  46.5921414  71.5099927
  98.5018385  46.7432574  71.3368894  97.1517355  46.6805435  70.6548573
  96.3714657  50.6172078  69.2798464  96.2325743  50.2490863  70.1524403
  95.5829253  51.1319718  69.1082422  96.9662809  55.7181175  60.6224001
  97.1414565  55.2469218  61.4369624  96.2795597  56.3446941  60.8505262
  97.9219872  49.9953681  66.6687302  97.5869705  49.9554451  67.5644952
  97.4223818  49.3298397  66.1957712  91.8964116  45.4021311  72.1939883
  91.7583914  44.6701550  72.7951422  92.8069040  45.3130211  71.9124071
 100.8579064  47.3409716  56.9424362 100.2408235  46.6156544  56.8457415
 100.3895552  48.1019076  56.5991436  94.5246417  45.1141271  71.6823563
  95.2346035  44.4734463  71.6410181  94.4815725  45.3654165  72.6049744
 102.5133196  52.0508624  74.6030142 102.4545742  51.3667844  73.9360725
 102.9152714  52.7927614  74.1510768  93.2375351  42.1006488  73.5019202
  92.7012708  41.6497227  74.1540799  92.6492059  42.2352397  72.7589667
  91.5323894  58.8670538  67.3963861  91.7720493  59.4989062  68.0742880
  90.6893091  58.5158578  67.6829220  92.6477610  41.5595140  56.0645666
  91.7707076  41.4383941  55.7007913  93.1235363  40.7681218  55.8124555
 102.5150603  50.0148208  72.8344122 101.6277382  49.6774130  72.9570521
 103.0849154  49.2831239  73.0712887  84.1679750  46.3472300  66.1587173
  84.8550790  46.0334030  65.5708189  84.0127879  47.2513664  65.8854425
  88.9714472  41.2362496  70.5872197  88.8872661  40.6288166  69.8522607
  88.1497178  41.7271514  70.5881693  96.0451756  54.6749660  69.8005365
  95.9721928  55.4804632  70.3124670  95.6029149  54.8741626  68.9753386
  95.8341536  53.9121430  63.3108187  95.0509058  54.4543110  63.4046411
  96.5334281  54.4295410  63.7102428  99.1438186  39.7216060  65.9542392
  99.6406886  38.9686022  65.6343462  98.3725167  39.7580376  65.3885601
  98.5050440  54.5736494  71.9563524  99.2178412  55.2083959  71.8839425
  98.0140468  54.6700360  71.1403526 100.2267967  48.4787747  63.5280815
  99.2924245  48.5989209  63.3585520 100.4044635  47.5760214  63.2640825
  95.7273155  41.8633443  65.6814077  95.3570942  41.3104483  66.3694982
  96.2232247  41.2591576  65.1289077 103.6140518  44.3205066  64.0630850
 104.0800970  45.1533058  63.9891152 104.0648019  43.8550048  64.7676108
  93.5562353  52.3230938  72.7769095  94.2571813  52.9567421  72.9298489
  93.0857468  52.6645669  72.0164734 101.6816749  50.6648887  61.0617002
 101.9576593  50.5505482  61.9710876 100.8121248  50.2666372  61.0229175
 101.5857181  36.6885653  68.1021751 100.6720261  36.9189880  68.2703958
 102.0150282  36.7724097  68.9535783 101.3563639  44.8775545  70.6021645
 100.7035089  45.1251453  69.9474098 101.7344019  44.0639683  70.2684122
  98.3170813  54.9135238  64.7049815  98.4993208  54.0956894  65.1677568
  99.1403799  55.1302931  64.2674705  98.6512979  53.8403423  61.9664864
  99.1800745  53.3295878  61.3535026  98.9141198  53.5245954  62.8310397
  97.4051212  45.6195356  77.0887682  96.7291849  45.5189485  77.7590057
  98.2278846  45.4634570  77.5523679  89.1530071  51.8567293  69.7100197
  89.7383508  51.1110981  69.8428101  88.9554910  52.1671249  70.5936861
  92.0068727  54.8918540  64.7262640  91.3379102  55.3764668  64.2426680
  91.8681596  55.1387761  65.6406018  83.7447726  44.4272893  68.4304640
  83.7831826  43.8936484  69.2241759  83.2388019  43.9008098  67.8115618
  96.1473995  56.9262284  71.3245298  96.6992303  57.0893905  72.0894383
  96.4880189  57.5166721  70.6525323  91.1238488  39.2737433  71.9267183
  91.1879815  40.1352264  71.5144580  91.0605609  38.6611435  71.1939541
  90.5990761  41.3460566  75.5740217  91.2262800  40.9637643  76.1877741
  89.7418680  41.1274768  75.9395909 100.9984869  51.7523541  77.1793952
 101.5424773  52.3653499  76.6848907 100.4171714  52.3103120  77.6960965
  87.3756304  43.1536995  61.5058572  87.6709745  42.2447673  61.4525625
  86.4744339  43.1324734  61.1839574  99.2842382  54.8744259  68.3108980
  99.1593522  54.0733999  67.8019926  99.9421474  55.3690452  67.8222950
  90.9050551  41.2292992  67.4886120  90.1837136  41.8428959  67.3493594
  91.6943806  41.7650756  67.4102766 101.3477291  52.6753279  69.9388530
 100.4007626  52.5558630  69.8666857 101.6960064  51.7875777  70.0214792
  93.7076864  38.5647418  73.7626772  94.2311266  38.8109715  74.5253081
  93.4889197  39.3967453  73.3429909  89.1044145  40.8351093  61.6297897
  88.7756851  39.9548472  61.4473003  89.4583516  40.7798761  62.5174286
  98.3523724  52.4705995  66.1392882  98.2048687  51.5422703  66.3200453
  99.1777218  52.4926086  65.6549958  92.2185968  41.1224063  61.9973375
  92.5582041  41.6509984  61.2751983  92.6658089  41.4604469  62.7731941
 101.9557846  53.2934554  67.2257755 102.8804393  53.0877415  67.0882206
 101.7873149  53.0450955  68.1347097  94.9129409  39.5061113  71.4476443
  94.5726230  38.7068926  71.8497123  94.2068415  39.8062824  70.8753276
  95.5645881  36.5910426  69.9003766  96.3871950  36.1170904  69.7782656
  95.8083945  37.3700909  70.4002452  94.2054116  39.6198684  60.1966667
  94.9262478  39.9979937  59.6930384  93.5819420  40.3387561  60.3001645
  98.3485238  40.3243833  61.1325000  98.5648853  41.2068471  60.8313828
  97.8679306  39.9330046  60.4030642  93.0884460  43.2829546  67.7095744
  92.9429041  43.5969849  68.6020026  92.6109663  43.9014447  67.1566643
  94.9480843  40.2732094  67.7576634  94.9342411  39.3773188  67.4208932
  95.6653271  40.2802758  68.3914920  96.8006973  40.7069434  69.8029761
  96.5424751  41.6286505  69.8014092  96.2692014  40.3099869  70.4930225
 101.7453162  53.8120222  62.5819847 101.9190040  53.2466644  61.8293699
 102.2382053  54.6121116  62.3999337  87.5630122  45.8234891  70.6483405
  87.0183590  46.5994699  70.7803680  88.4409472  46.1705695  70.4902527
  94.3517739  39.1546475  63.0264204  94.4733650  38.2263121  63.2255092
  94.0619781  39.1685161  62.1142519  97.2208929  36.8401385  66.1630924
  97.2430626  36.9040718  65.2082903  97.6376988  36.0005894  66.3571430
 102.7328335  53.1286986  59.6816745 103.4279239  53.7493679  59.9004060
 103.0751485  52.2782337  59.9569123  88.3496144  44.9504787  73.5413562
  87.6077880  45.0987422  74.1278193  88.0288888  45.2113053  72.6780312
 104.6319758  50.5786692  61.2104076 105.1571082  50.9173964  60.4853396
 104.5442110  49.6433707  61.0267210  96.2939806  54.4920765  73.3393952
  96.6026933  54.2469912  74.2116652  97.0915288  54.6967404  72.8512823
  96.3160419  56.6458675  65.5699329  95.8765409  56.1535054  66.2632186
  97.0668535  56.1031642  65.3291404  88.7952758  52.8370216  65.5723957
  89.6210777  52.5373988  65.1922601  88.4446809  52.0677838  66.0213746
  93.7634291  52.1896684  67.6421631  93.1414300  51.5267389  67.3423858
  94.4339158  52.2157816  66.9595278  86.9961363  50.7556542  66.5312891
  86.1593271  50.3278716  66.3496892  86.9685008  50.9488985  67.4683682
  93.8358818  40.6678472  77.2354137  93.8846974  41.5440595  76.8531906
  94.3781332  40.1255865  76.6625780 104.3213664  51.2119595  76.5155274
 103.5309208  51.1943734  75.9759773 104.0847018  51.7507889  77.2704310
 104.4411539  48.0612062  73.8288002 104.4909544  47.8962069  74.7703525
 104.3325462  47.1939321  73.4385883  93.3247798  50.7400607  61.1180091
  93.4735918  51.4236072  60.4646764  94.1314241  50.7205697  61.6329547
 101.7315301  44.0442990  75.1447309 102.6325164  43.9049454  74.8531307
 101.8063276  44.2097444  76.0845486  96.0658107  41.4209844  73.9900495
  95.1961416  41.7143410  73.7183084  96.3017587  42.0050289  74.7107759
 105.9429736  50.4809003  74.0730024 105.6514544  50.8438984  74.9093485
 105.3301867  49.7676011  73.8943356 104.1916924  45.6041618  72.5410082
 104.6671046  45.7969264  71.7328933 103.2682489  45.6600804  72.2953465
  91.0800431  46.7665785  62.1241160  90.8346472  45.8628115  62.3221370
  91.2496345  46.7682935  61.1820638  98.7697140  37.6389461  71.5065916
  99.2879084  38.3750488  71.1812404  98.4152273  37.9453455  72.3412675
  90.3496078  42.4994142  59.6227322  89.6565323  42.5738497  58.9667357
  90.1047830  41.7354486  60.1448838  99.0209735  34.0589744  67.0266812
  99.3011488  33.3912933  67.6527239  99.8060342  34.2518839  66.5141476
  96.8243203  53.2348738  58.5891839  96.2517170  53.8538925  58.1362310
  97.3975997  53.7848099  59.1231761 102.8918593  42.4807378  70.7738387
 103.8436016  42.5805475  70.7950611 102.7222043  41.6885646  71.2836472
 100.9132972  39.5662961  70.9597788 100.3182905  39.8467974  70.2644277
 100.6282669  40.0556862  71.7314529 100.0440463  53.5185888  59.7200421
 100.9771136  53.4531449  59.9233296  99.9563676  54.3542155  59.2614953
 102.6728480  52.8351758  56.6804368 102.5942111  52.5011622  57.5740126
 103.4938146  53.3273526  56.6795841 105.3706671  45.7013497  69.8880687
 105.3382991  44.7629498  70.0740371 105.9807294  45.7797534  69.1546512
  97.2090002  44.5709550  55.9307891  98.1549106  44.4415759  55.9996309
  96.8304247  43.8324212  56.4077319 105.5201159  42.4924541  69.9338970
 105.0040208  41.7082998  69.7468899 106.4041108  42.1643258  70.0985490
 103.1811886  36.2365556  65.8934783 102.9836707  35.9280645  66.7778115
 103.7911592  36.9627195  66.0232713  97.0928694  48.6227297  77.3908548
  98.0131704  48.8005896  77.5848595  97.0578277  47.6783342  77.2388247
  95.3932919  42.4959527  55.8662776  94.4864374  42.1992640  55.9425490
  95.6708900  42.1989345  54.9997063  86.3110859  43.8165890  66.3161823
  85.9913643  42.9631198  66.0236197  85.7644287  44.0314468  67.0719790
  90.0890767  46.5328331  70.0331329  90.3076776  47.4645439  70.0519363
  90.5016541  46.1736306  70.8186133  97.0094984  37.0396417  62.0207018
  96.1995713  36.6943502  62.3962264  97.6979401  36.7303960  62.6094629
  98.9385533  36.1174463  63.6431314  99.4916571  36.5369917  64.3021337
  99.1755619  35.1910211  63.6854270  94.9618632  42.1061537  79.4234078
  94.8615359  43.0555894  79.3546169  94.7440174  41.7779776  78.5510148
  94.1631703  39.3546462  56.0074755  95.0250867  39.6801360  56.2670573
  94.3482048  38.5677958  55.4947821  86.1799119  47.4368802  68.2854944
  85.4862591  47.0222755  67.7724899  86.9272110  47.4789338  67.6888363
 102.3164340  38.2274989  63.1509978 101.7363009  38.8859793  62.7688031
 102.0500273  37.4052333  62.7397396 100.7667906  37.6280046  65.3531299
 101.2667685  37.7396581  64.5445618 101.4103514  37.3241099  65.9932107
  94.8249902  45.5358676  78.2399140  94.3416984  46.3359036  78.4463029
  94.9110841  45.5466621  77.2866584  88.0935862  47.3687056  66.1620959
  88.0706550  47.4674743  65.2102842  88.4036498  48.2152206  66.4838125
  90.7523240  49.4263211  70.2767574  91.7066493  49.3947153  70.2097505
  90.5535763  48.9653834  71.0917799  91.3422622  47.9964327  72.8438371
  92.1615511  48.4908405  72.8673209  91.6159429  47.0796295  72.8155939
 101.0989218  40.3875079  62.2066327 100.2115073  40.6724730  61.9886521
 101.5143207  40.2268842  61.3593604 104.4503754  40.4121600  65.9220666
 105.2264144  40.9018052  66.1945283 103.7251888  40.8379654  66.3792535
  89.1073468  54.9682830  67.2937771  88.9727936  54.2083231  66.7275769
  88.6905531  55.6923730  66.8266560 100.2432431  50.1519754  56.3014347
 100.9468281  50.3569756  56.9172002  99.5195080  50.7196515  56.5663430
 101.0730242  45.9029615  62.4216617 101.0165443  46.3598166  61.5824249
 101.6258584  45.1420299  62.2439460 104.8835048  41.6919347  63.2466736
 104.6271982  41.2915982  64.0774944 104.2587916  42.4063141  63.1216876
  92.2642594  55.8652147  67.5056214  92.1474978  56.8097580  67.4034904
  91.4435040  55.5625709  67.8942013 102.1519129  50.5902283  58.3512807
 102.9864733  50.1583481  58.1690282 101.9903472  50.4184296  59.2789701
 101.8065021  47.0934396  59.7169146 101.7513825  46.9278668  58.7757590
 101.1811076  47.8010429  59.8731336  86.5957536  42.3302460  73.5430568
  87.2416400  41.8201414  74.0317793  86.3874687  43.0671142  74.1173994
  99.1210928  49.3983308  79.0422709  99.9902088  49.5723960  78.6809344
  98.6417680  50.2177725  78.9198438  95.1161146  36.5942505  59.2954464
  95.1039816  37.5384345  59.4522735  96.0084568  36.4112650  59.0013926
  93.2897108  56.5180409  70.7212142  94.1924355  56.5504019  71.0378637
  93.0634478  55.5880860  70.7358478  95.0450710  55.2711395  67.3822221
  94.0946341  55.2713257  67.2686593  95.3483196  54.5244130  66.8658256
  98.9313266  33.1885282  63.5500401  98.1645662  32.6343768  63.6957084
  99.3423971  33.2607150  64.4114553  90.9355027  39.4770078  77.6405583
  91.7986488  39.1206882  77.8508907  90.3620438  39.1383972  78.3280987
 103.4479926  62.9134838  64.3726399 102.8844791  62.8224775  63.6042687
 103.3332321  62.0934743  64.8528892 100.9944358  64.4086030  67.2110620
 101.7865650  64.0676855  66.7956919 101.2341008  64.5181005  68.1312773
 102.9535112  63.6694943  60.0827998 103.7265988  63.1223930  59.9440874
 103.3060511  64.5339193  60.2942460 104.7920154  64.9971326  73.2894898
 104.5010020  65.9016956  73.1741564 105.4277139  65.0387853  74.0038967
 105.7176361  62.3748174  69.8796257 106.3139933  62.1504196  69.1653220
 105.7751333  61.6332920  70.4821705 105.2901390  59.8287609  57.7146448
 105.5426910  59.3069131  56.9529911 104.3525949  59.6653755  57.8173132
 105.0097678  61.7315715  59.9170823 104.8933936  61.0560619  60.5851908
 105.1199938  61.2448089  59.1002976 103.2022521  61.1346538  66.3181396
 102.2773017  61.0022752  66.5259088 103.4506934  61.9140757  66.8151338
 100.5631332  60.7779811  67.1525185 100.6923713  61.0314290  68.0664597
  99.8828783  61.3707519  66.8329840 104.7330819  71.4477061  63.2515659
 104.6554849  72.3984886  63.3304140 104.1292463  71.1022934  63.9090585
 105.4794421  61.4290380  75.4694993 106.2209106  61.9675424  75.1929817
 104.7731407  62.0556669  75.6266545 103.7230618  63.4166601  68.0249292
 104.2931976  63.8453869  67.3866776 104.3138730  63.1349186  68.7233477
 105.7675423  59.9918272  61.8959094 106.4699467  60.4439315  62.3633020
 105.4356052  59.3502091  62.5238987 104.2155785  58.5830028  76.2710303
 103.5854446  59.2646309  76.5045700 104.1091873  58.4713110  75.3263441
  99.5100757  58.2501824  67.1976227  98.7199811  58.5059353  66.7216338
 100.0012005  59.0650162  67.3028268 101.4615503  58.6146404  64.1559704
 100.6646666  58.7265098  64.6743200 101.2341095  58.9533056  63.2900594
  97.7938460  58.5032315  69.6291218  98.0446499  59.3879325  69.8948794
  98.3298009  58.3236916  68.8566310 103.4936528  52.8850794  78.6335554
 103.1003473  52.3316993  79.3083198 104.3102668  53.1961373  79.0242072
 100.4598585  64.3234652  62.5449124 100.9723106  65.1177903  62.6954689
 101.1121298  63.6260943  62.4782725 102.2693470  67.4400409  64.6271877
 102.4460098  68.3618373  64.4392861 103.0650304  67.1258828  65.0566257
 101.5545827  59.4865041  74.5034040 101.4399342  58.5850298  74.8041139
 100.6990344  59.7328737  74.1518857 103.3924786  68.9578582  70.6282219
 103.9432211  68.8295646  69.8559213 102.5536262  69.2573471  70.2777112
  98.4247502  62.6523307  63.3208694  99.2622724  63.0620315  63.1042402
  98.6025770  61.7122749  63.2908888 105.6801078  52.7833161  67.4735507
 106.5454075  52.5875970  67.1141397 105.7478587  52.5543513  68.4004864
 103.2863397  55.0135369  64.8451874 103.8607149  54.7910551  64.1125067
 103.8734379  55.0824064  65.5980475 103.6132984  57.0439830  58.8647759
 102.7770296  57.3814517  59.1857034 103.4737754  56.9088810  57.9274896
 105.5886065  51.8876618  63.5726944 104.9350477  51.5725635  62.9483558
 105.5466539  51.2652358  64.2986766  98.4473673  59.9914022  63.9919428
  98.2498073  59.3983383  63.2670494  97.8920337  59.6866232  64.7095367
 106.4270397  59.8837128  66.1114021 106.4819007  58.9310965  66.0356498
 105.6161599  60.0396568  66.5955319 104.3662757  58.5014188  63.8704400
 103.5530622  58.8008359  64.2769592 104.8621751  58.1069877  64.5878882
 103.8576832  56.0732544  69.4865635 104.4976211  55.9321303  68.7888598
 103.0254362  55.7867057  69.1104237 104.6337136  65.3734974  65.6000627
 105.4277734  64.8785294  65.3983202 103.9228828  64.8452837  65.2368333
 100.9419899  59.5178056  61.6760380 100.0117487  59.4562511  61.8930342
 101.0377371  58.9954009  60.8797021 100.8605448  56.0432869  64.2638622
 101.1212265  56.9578202  64.1547782 101.6822620  55.5757311  64.4135234
 102.3330373  57.4570626  71.4337446 103.0053427  57.2487988  70.7850095
 101.5060160  57.2592712  70.9942678 102.7357871  60.7313229  72.1939883
 102.5977669  59.9993468  72.7951422 103.6462794  60.6422129  71.9124071
 105.3640171  60.4433188  71.6823563 106.0739790  59.8026380  71.6410181
 105.3209480  60.6946083  72.6049744 104.0769105  57.4298406  73.5019202
 103.5406462  56.9789145  74.1540799 103.4885814  57.5644315  72.7589667
 102.3717649  74.1962455  67.3963861 102.6114247  74.8280980  68.0742880
 101.5286845  73.8450495  67.6829220 103.4871364  56.8887057  56.0645666
 102.6100831  56.7675858  55.7007913 103.9629117  56.0973136  55.8124555
  95.0073504  61.6764217  66.1587173  95.6944544  61.3625947  65.5708189
  94.8521633  62.5805582  65.8854425  99.8108227  56.5654414  70.5872197
  99.7266415  55.9580083  69.8522607  98.9890933  57.0563432  70.5881693
 104.3956108  67.6522855  72.7769095 105.0965567  68.2859338  72.9298489
 103.9251223  67.9937587  72.0164734  99.9923826  67.1859210  69.7100197
 100.5777263  66.4402898  69.8428101  99.7948664  67.4963167  70.5936861
 102.8462481  70.2210458  64.7262640 102.1772856  70.7056585  64.2426680
 102.7075351  70.4679678  65.6406018  94.5841481  59.7564811  68.4304640
  94.6225580  59.2228401  69.2241759  94.0781773  59.2300016  67.8115618
 101.9632243  54.6029351  71.9267183 102.0273569  55.4644182  71.5144580
 101.8999363  53.9903353  71.1939541 101.4384515  56.6752484  75.5740217
 102.0656554  56.2929561  76.1877741 100.5812434  56.4566686  75.9395909
  98.2150058  58.4828913  61.5058572  98.5103499  57.5739591  61.4525625
  97.3138094  58.4616652  61.1839574 101.7444305  56.5584909  67.4886120
 101.0230891  57.1720877  67.3493594 102.5337561  57.0942674  67.4102766
 104.5470619  53.8939336  73.7626772 105.0705020  54.1401632  74.5253081
 104.3282952  54.7259371  73.3429909  99.9437900  56.1643010  61.6297897
  99.6150606  55.2840389  61.4473003 100.2977270  56.1090679  62.5174286
 103.0579723  56.4515980  61.9973375 103.3975795  56.9801901  61.2751983
 103.5051843  56.7896386  62.7731941 105.7523164  54.8353031  71.4476443
 105.4119984  54.0360844  71.8497123 105.0462170  55.1354742  70.8753276
 105.0447870  54.9490602  60.1966667 105.7656233  55.3271855  59.6930384
 104.4213174  55.6679479  60.3001645 103.9278214  58.6121464  67.7095744
 103.7822795  58.9261767  68.6020026 103.4503418  59.2306364  67.1566643
 105.7874597  55.6024012  67.7576634 105.7736166  54.7065105  67.4208932
 106.5047025  55.6094676  68.3914920  98.4023876  61.1526808  70.6483405
  97.8577345  61.9286616  70.7803680  99.2803226  61.4997613  70.4902527
 105.1911493  54.4838392  63.0264204 105.3127404  53.5555038  63.2255092
 104.9013535  54.4977078  62.1142519  99.1889898  60.2796705  73.5413562
  98.4471634  60.4279340  74.1278193  98.8682643  60.5404970  72.6780312
  99.6346512  68.1662133  65.5723957 100.4604532  67.8665905  65.1922601
  99.2840564  67.3969756  66.0213746 104.6028045  67.5188602  67.6421631
 103.9808054  66.8559307  67.3423858 105.2732912  67.5449733  66.9595278
  97.8355117  66.0848460  66.5312891  96.9987025  65.6570634  66.3496892
  97.8078762  66.2780903  67.4683682 104.6752573  55.9970390  77.2354137
 104.7240728  56.8732512  76.8531906 105.2175087  55.4547783  76.6625780
 104.1641552  66.0692525  61.1180091 104.3129672  66.7527989  60.4646764
 104.9707996  66.0497615  61.6329547 101.9194185  62.0957703  62.1241160
 101.6740227  61.1920033  62.3221370 102.0890100  62.0974853  61.1820638
 101.1889833  57.8286060  59.6227322 100.4959078  57.9030415  58.9667357
 100.9441584  57.0646404  60.1448838 106.2326673  57.8251445  55.8662776
 105.3258129  57.5284557  55.9425490 106.5102654  57.5281263  54.9997063
  97.1504614  59.1457808  66.3161823  96.8307398  58.2923116  66.0236197
  96.6038042  59.3606386  67.0719790 100.9284521  61.8620249  70.0331329
 101.1470531  62.7937357  70.0519363 101.3410295  61.5028223  70.8186133
 105.8012386  57.4353455  79.4234078 105.7009113  58.3847812  79.3546169
 105.5833929  57.1071694  78.5510148 105.0025458  54.6838380  56.0074755
 105.8644622  55.0093278  56.2670573 105.1875802  53.8969876  55.4947821
  97.0192874  62.7660719  68.2854944  96.3256345  62.3514672  67.7724899
  97.7665865  62.8081256  67.6888363 105.6643657  60.8650594  78.2399140
 105.1810738  61.6650954  78.4463029 105.7504596  60.8758538  77.2866584
  98.9329616  62.6978973  66.1620959  98.9100304  62.7966660  65.2102842
  99.2430253  63.5444124  66.4838125 101.5916994  64.7555128  70.2767574
 102.5460248  64.7239071  70.2097505 101.3929518  64.2945752  71.0917799
 102.1816376  63.3256244  72.8438371 103.0009265  63.8200323  72.8673209
 102.4553184  62.4088212  72.8155939  99.9467223  70.2974748  67.2937771
  99.8121691  69.5375149  66.7275769  99.5299285  71.0215648  66.8266560
 103.1036349  71.1944065  67.5056214 102.9868733  72.1389497  67.4034904
 102.2828795  70.8917626  67.8942013  97.4351290  57.6594378  73.5430568
  98.0810154  57.1493332  74.0317793  97.2268442  58.3963060  74.1173994
 104.1290863  71.8472327  70.7212142 105.0318110  71.8795937  71.0378637
 103.9028233  70.9172778  70.7358478 105.8844465  70.6003313  67.3822221
 104.9340096  70.6005175  67.2686593 106.1876951  69.8536048  66.8658256
 101.7748781  54.8061995  77.6405583 102.6380243  54.4498800  77.8508907
 101.2014192  54.4675890  78.3280987 105.8467259  77.0056135  66.1587173
 106.5338299  76.6917865  65.5708189 105.6915388  77.9097500  65.8854425
 105.4235235  75.0856728  68.4304640 105.4619335  74.5520319  69.2241759
 104.9175528  74.5591934  67.8115618  69.8536387   5.2148825  54.1209168
  70.0932985   5.8467349  54.7988186  69.0105583   4.8636865  54.4074527
  81.7692418   9.2613126  51.0971706  81.2057283   9.1703063  50.3287994
  81.6544813   8.4413030  51.5774198  79.3156850  10.7564317  53.9355926
  80.1078142  10.4155142  53.5202226  79.5553500  10.8659292  54.8558080
  87.3491977  12.9284093  46.4086171  86.6979957  13.5138174  46.0220184
  88.1436340  13.4590288  46.4681208  81.2747604  10.0173230  46.8073305
  82.0478480   9.4702218  46.6686181  81.6273003  10.8817480  47.0187766
  83.1132647  11.3449613  60.0140204  82.8222513  12.2495244  59.8986871
  83.7489631  11.3866140  60.7284274  84.0388853   8.7226461  56.6041564
  84.6352426   8.4982484  55.8898527  84.0963825   7.9811207  57.2067012
  88.8267242  10.6174525  46.9455155  88.1913075  10.6909152  47.6576060
  88.4964648  11.2068124  46.2674234  88.0722532  11.0311028  57.0089998
  87.7723255  11.9336067  56.9005805  87.7273591  10.7643211  57.8611151
  81.5235013   7.4824825  53.0426702  80.5985510   7.3501039  53.2504394
  81.7719426   8.2619044  53.5396645  78.8843824   7.1258099  53.8770492
  79.0136205   7.3792578  54.7909903  78.2041275   7.7185807  53.5575147
  83.0543311  17.7955349  49.9760966  82.9767341  18.7463174  50.0549446
  82.4504955  17.4501221  50.6335892  89.5991068  10.4798998  54.5464750
  88.9699930  10.6444713  53.8440818  89.2116730  10.8940608  55.3175714
  93.4780300  11.4153436  51.9009114  92.7931338  11.7952338  51.3506147
  93.5624149  12.0248763  52.6341062  85.1519030  10.2173407  51.8114835
  85.6157375  10.4961110  51.0219458  84.8875828   9.3156851  51.6287926
  82.0443111   9.7644888  54.7494598  82.6144468  10.1932156  54.1112083
  82.6351223   9.4827473  55.4478784  91.8477059  11.9385351  56.6726815
  92.6694503  11.5365538  56.3909496  91.8439462  11.8353585  57.6242930
  85.6133663  11.4869394  58.8287525  85.6778095  11.9489801  59.6645697
  84.9044587  10.8566759  58.9569835  85.3281680  13.1537502  48.6966505
  85.1927355  13.9989037  49.1251353  85.8691493  13.3556779  47.9332439
  78.7811078  10.6712940  49.2694431  79.2935598  11.4656190  49.4199995
  79.4333791   9.9739230  49.2028032  80.5905962  13.7878696  51.3517184
  80.7672591  14.7096661  51.1638168  81.3862796  13.4737115  51.7811564
  86.9550157  13.7761068  62.8266848  86.5114011  12.9897447  62.5087752
  87.6167370  13.9640219  62.1610738  81.7137278  15.3056870  57.3527526
  82.2644703  15.1773933  56.5804520  80.8748754  15.6051759  57.0022419
  89.0531395  14.0563868  60.8548249  89.0349870  14.8772749  60.3628518
  89.9751315  13.9317943  61.0798390  85.5104449  11.5707998  61.6971757
  86.0432786  10.8096286  61.4671065  84.9818530  11.2781649  62.4395912
  76.7459995   9.0001594  50.0454001  77.5835217   9.4098602  49.8287709
  76.9238262   8.0601036  50.0154195  86.8757162  10.6993990  49.2090569
  86.3478523   9.9646750  48.8963807  86.3744664  11.4768666  48.9630538
  87.9277841  17.2271707  45.1322228  87.2539539  17.5303404  45.7407186
  88.3143663  18.0300788  44.7827685  91.4317263  12.2293385  50.5040700
  90.9779590  11.3884294  50.5605890  90.8011229  12.8654783  50.8415480
  89.8750202  14.0669881  51.4390518  90.1673176  14.6274938  50.7202884
  90.3848822  14.3598442  52.1943677  76.7686166   6.3392309  50.7164735
  76.5710565   5.7461670  49.9915801  76.2132830   6.0344519  51.4340673
  85.8974083  10.1595539  44.0737611  85.4593513   9.4431398  43.6143248
  86.6384524  10.3871654  43.5122702  84.8383827  14.8450232  52.5283971
  84.7960006  15.0711079  51.5992503  85.7546526  14.6113607  52.6769772
  82.9549628  11.7213261  52.3245934  83.7490226  11.2263582  52.1228509
  82.2441320  11.1931125  51.9613640  87.7744472  14.1031357  56.6758302
  87.8281495  14.6722293  57.4436017  86.9059254  14.2733242  56.3112339
  89.9647236  10.6959706  63.2498967  89.8132742  10.4670258  62.3329051
  89.9551915  11.6530308  63.2630312  85.5320904  12.2942283  56.0043771
  85.3931990  11.9261068  56.8769709  84.7435500  12.8089923  55.8327729
  86.1269056  17.3951380  47.3469308  86.3020812  16.9239423  48.1614930
  85.4401844  18.0217146  47.5750568  87.0826119  11.6723886  53.3932609
  86.7475952  11.6324656  54.2890259  86.5830065  11.0068602  52.9203019
  91.6739442  13.7278829  61.3275449  91.6151988  13.0438049  60.6606032
  92.0758961  14.4697819  60.8756075  80.6930141  20.5440743  54.1209168
  80.9326739  21.1759267  54.7988186  79.8499338  20.1928783  54.4074527
  91.6756850  11.6918413  59.5589429  90.7883628  11.3544334  59.6815827
  92.2455401  10.9601444  59.7958194  73.3285997   8.0242504  52.8832480
  74.0157037   7.7104234  52.2953495  73.1734125   8.9283869  52.6099731
  85.2058003  16.3519865  56.5250672  85.1328174  17.1574837  57.0369976
  84.7635396  16.5511831  55.6998693  84.9947783  15.5891635  50.0353493
  84.2115305  16.1313315  50.1291718  85.6940528  16.1065615  50.4347734
  87.6656687  16.2506699  58.6808830  88.3784659  16.8854164  58.6084732
  87.1746715  16.3470565  57.8648832  82.7168600  14.0001143  59.5014401
  83.4178060  14.6337626  59.6543795  82.2463715  14.3415874  58.7410040
  90.8422996  12.3419092  47.7862308  91.1182840  12.2275687  48.6956182
  89.9727495  11.9436577  47.7474481  87.4777060  16.5905443  51.4295122
  87.6599454  15.7727099  51.8922874  88.3010046  16.8073135  50.9920012
  87.8119225  15.5173628  48.6910170  88.3406992  15.0066083  48.0780332
  88.0747445  15.2016159  49.5555703  78.3136318  13.5337498  56.4345504
  78.8989755  12.7881186  56.5673408  78.1161157  13.8441454  57.3182168
  81.1674973  16.5688745  51.4507946  80.4985349  17.0534873  50.9671986
  81.0287843  16.8157965  52.3651325  72.9053973   6.1043098  55.1549947
  72.9438072   5.5706689  55.9487065  72.3994266   5.5778303  54.5360924
  85.3080242  18.6032489  58.0490605  85.8598550  18.7664110  58.8139690
  85.6486435  19.1936926  57.3770629  90.1591116  13.4293746  63.9039259
  90.7031020  14.0423704  63.4094214  89.5777961  13.9873324  64.4206272
  88.4448629  16.5514464  55.0354287  88.3199769  15.7504204  54.5265232
  89.1027720  17.0460657  54.5468257  90.5083538  14.3523484  56.6633837
  89.5613873  14.2328835  56.5912164  90.8566311  13.4645982  56.7460098
  87.5129971  14.1476200  52.8638189  87.3654933  13.2192908  53.0445759
  88.3383464  14.1696291  52.3795264  91.1164093  14.9704759  53.9503062
  92.0410640  14.7647620  53.8127513  90.9479396  14.7221160  54.8592403
  90.9059409  15.4890427  49.3065153  91.0796286  14.9236849  48.5539006
  91.3988300  16.2891321  49.1244643  76.7236369   7.5005096  57.3728712
  76.1789837   8.2764904  57.5048986  77.6015719   7.8475900  57.2147834
  91.8934581  14.8057191  46.4062052  92.5885486  15.4263884  46.6249366
  92.2357732  13.9552542  46.6814429  77.5102391   6.6274992  60.2658869
  76.7684127   6.7757627  60.8523499  77.1895135   6.8883257  59.4025618
  93.7926005  12.2556896  47.9349382  94.3177329  12.5944169  47.2098702
  93.7048357  11.3203912  47.7512517  85.4546053  16.1690970  60.0639259
  85.7633180  15.9240117  60.9361959  86.2521535  16.3737609  59.5758129
  85.4766665  18.3228880  52.2944636  85.0371656  17.8305258  52.9877492
  86.2274782  17.7801847  52.0536711  77.9559004  14.5140421  52.2969264
  78.7817024  14.2144192  51.9167907  77.6053056  13.7448043  52.7459052
  82.9240537  13.8666889  54.3666937  82.3020547  13.2037594  54.0669165
  83.5945404  13.8928021  53.6840585  76.1567609  12.4326747  53.2558197
  75.3199518  12.0048921  53.0742198  76.1291255  12.6259190  54.1928988
  93.4819911  12.8889800  63.2400580  92.6915454  12.8713939  62.7005080
  93.2453265  13.4278094  63.9949617  82.4854044  12.4170812  47.8425398
  82.6342165  13.1006277  47.1892071  83.2920488  12.3975902  48.3574853
  80.2406677   8.4435990  48.8486467  79.9952719   7.5398320  49.0466677
  80.4102592   8.4453140  47.9065945  85.9849450  14.9118943  45.3137145
  85.4123417  15.5309130  44.8607617  86.5582244  15.4618304  45.8477067
  89.2046710  15.1956093  46.4445727  90.1377383  15.1301654  46.6478603
  89.1169922  16.0312360  45.9860260  91.8334726  14.5121963  43.4049675
  91.7548358  14.1781827  44.2985433  92.6544393  15.0043731  43.4041147
  86.2534941  10.2997501  64.1153855  87.1737950  10.4776100  64.3093901
  86.2184524   9.3553547  63.9633554  79.2497013   8.2098536  56.7576636
  79.4683023   9.1415644  56.7764670  79.6622787   7.8506511  57.5431440
  75.3405366   9.1139007  55.0100251  74.6468837   8.6992959  54.4970205
  76.0878357   9.1559543  54.4133670  77.2542108   9.0457260  52.8866266
  77.2312797   9.1444948  51.9348149  77.5642745   9.8922411  53.2083432
  79.9129486  11.1033415  57.0012880  80.8672740  11.0717358  56.9342812
  79.7142010  10.6424039  57.8163106  80.5028868   9.6734532  59.5683678
  81.3221757  10.1678610  59.5918515  80.7765676   8.7566500  59.5401245
  78.2679715  16.6453035  54.0183078  78.1334183  15.8853436  53.4521076
  77.8511777  17.3693935  53.5511867  89.4038678  11.8289958  43.0259653
  90.1074528  12.0339961  43.6417309  88.6801327  12.3966720  43.2908737
  81.4248841  17.5422352  54.2301521  81.3081225  18.4867784  54.1280211
  80.6041287  17.2395914  54.6187320  91.3125376  12.2672488  45.0758113
  92.1470979  11.8353686  44.8935588  91.1509718  12.0954501  46.0035008
  88.2817175  11.0753513  65.7668015  89.1508335  11.2494165  65.4054650
  87.8023926  11.8947930  65.6443745  82.4503355  18.1950614  57.4457449
  83.3530602  18.2274224  57.7623944  82.2240725  17.2651065  57.4603785
  84.2056957  16.9481600  54.1067528  83.2552588  16.9483462  53.9931900
  84.5089443  16.2014335  53.5903562  99.9409651  22.7842139  55.1713290
 100.5788061  22.6648886  54.4676630  99.8230494  23.7322983  55.2301242
  96.7499357  22.7369567  55.1074815  96.4117868  22.6210632  54.2195350
  97.6189125  22.3360732  55.0875821  92.6086173  24.5905043  51.0971706
  92.0451038  24.4994980  50.3287994  92.4938568  23.7704948  51.5774198
  97.2319140  23.8904419  61.0661020  97.2207781  23.4957217  60.1941524
  97.3939779  23.1570491  61.6594792  90.1550605  26.0856235  53.9355926
  90.9471896  25.7447060  53.5202226  90.3947255  26.1951210  54.8558080
  98.1885731  28.2576011  46.4086171  97.5373711  28.8430091  46.0220184
  98.9830094  28.7882206  46.4681208  92.1141358  25.3465148  46.8073305
  92.8872234  24.7994135  46.6686181  92.4666757  26.2109397  47.0187766
  93.9526401  26.6741530  60.0140204  93.6616267  27.5787161  59.8986871
  94.5883385  26.7158058  60.7284274  94.8782608  24.0518379  56.6041564
  95.4746180  23.8274401  55.8898527  94.9357579  23.3103124  57.2067012
  94.4507636  21.5057814  44.4391755  94.7033157  20.9839336  43.6775218
  93.5132195  21.3423960  44.5418439  99.4950919  20.5093593  52.2466498
 100.2814008  20.0913016  51.8956915  99.7589623  21.4139685  52.4148147
  99.6660996  25.9466443  46.9455155  99.0306829  26.0201069  47.6576060
  99.3358403  26.5360042  46.2674234 104.8959346  20.4468826  53.1499477
 105.6284518  19.8768043  53.3837306 104.1398702  20.0590426  53.5905982
  94.1703925  23.4085920  46.6416130  94.0540183  22.7330824  47.3097214
  94.2806185  22.9218294  45.8248283  96.5135466  22.8696067  50.3462819
  96.1493673  22.3426688  51.0575741  97.3702582  22.4794536  50.1729305
  96.1540953  17.8985967  45.3424168  96.3215355  18.7666203  45.7094639
  95.9638122  18.0613249  44.4185457  98.9116286  26.3602946  57.0089998
  98.6117009  27.2627985  56.9005805  98.5667346  26.0935129  57.8611151
  92.3628768  22.8116743  53.0426702  91.4379264  22.6792957  53.2504394
  92.6113181  23.5910962  53.5396645 102.3113430  18.8785486  54.6887435
 101.4030307  18.8100895  54.3946196 102.2601026  19.3557431  55.5169261
  96.1330174  20.3543625  46.3270835  96.0129799  20.8000675  47.1656315
  95.4382762  20.7028942  45.7684373  89.7237579  22.4550016  53.8770492
  89.8529960  22.7084495  54.7909903  89.0435030  23.0477724  53.5575147
  93.8937066  33.1247266  49.9760966  93.8161096  34.0755091  50.0549446
  93.2898709  32.7793139  50.6335892  96.3854296  20.2975132  62.6322333
  95.6087630  20.8569052  62.6225197  97.0244859  20.7831915  63.1537203
 104.1775076  17.0801925  56.4665309 103.5349457  17.3734458  55.8205104
 103.6730005  16.9654845  57.2718506 101.8315240  20.8265098  47.1551169
 102.7433096  21.0592484  46.9798866 101.3224887  21.4102142  46.5926247
  94.6400668  23.1060585  62.1940300  95.3815352  23.6445629  61.9175123
  93.9337653  23.7326874  62.3511851 100.1156008  25.2489726  60.7912461
 100.5239364  24.8072136  60.0467093  99.3933269  24.6742353  61.0446654
  96.4687078  20.1862332  58.1646018  97.3148273  20.6101746  58.3080667
  96.4085715  19.5295957  58.8584581 100.4384822  25.8090916  54.5464750
  99.8093685  25.9736630  53.8440818 100.0510484  26.2232526  55.3175714
 104.3174054  26.7445354  51.9009114 103.6325092  27.1244255  51.3506147
 104.4017903  27.3540681  52.6341062  99.6186523  17.8466701  59.8227192
  99.3747455  18.6008761  59.2861467  99.8946454  18.2252048  60.6574439
 101.5724986  24.3905313  58.5004457 101.7841881  25.0337073  57.8238838
 101.5254734  23.5567630  58.0326387  99.1751215  17.0023134  55.4041029
  98.3135694  17.3004387  55.6957767  99.2013649  17.2193533  54.4722062
  95.9912784  25.5465324  51.8114835  96.4551130  25.8253027  51.0219458
  95.7269582  24.6448769  51.6287926  92.8836865  25.0936806  54.7494598
  93.4538222  25.5224074  54.1112083  93.4744977  24.8119390  55.4478784
  94.9281670  21.6688477  48.6204400  95.6305714  22.1209520  49.0878327
  94.5962299  21.0272295  49.2484293  93.3762032  20.2600233  62.9955610
  92.7460692  20.9416514  63.2291006  93.2698120  20.1483315  62.0508748
  88.6707004  19.9272029  53.9221534  87.8806058  20.1829558  53.4461644
  89.1618252  20.7420367  54.0273574 102.6870814  27.2677268  56.6726815
 103.5088257  26.8657456  56.3909496 102.6833217  27.1645503  57.6242930
  90.6221750  20.2916609  50.8805011  89.8252913  20.4035303  51.3988506
  90.3947342  20.6303261  50.0145901  96.4527417  26.8161312  58.8287525
  96.5171850  27.2781719  59.6645697  95.7438341  26.1858677  58.9569835
  86.9544707  20.1802520  56.3536525  87.2052746  21.0649530  56.6194101
  87.4904256  20.0007121  55.5811616  96.1675435  28.4829419  48.6966505
  96.0321110  29.3280955  49.1251353  96.7085247  28.6848697  47.9332439
  92.6542774  14.5620999  65.3580861  92.2609720  14.0087198  66.0328505
  93.4708915  14.8731578  65.7487378  89.6204832  26.0004857  49.2694431
  90.1329353  26.7948108  49.4199995  90.2727545  25.3031148  49.2028032
  91.4299717  29.1170614  51.3517184  91.6066345  30.0388578  51.1638168
  92.2256550  28.8029033  51.7811564  95.5710735  15.9778878  62.9501117
  96.3120449  16.5786031  62.8705580  95.8028658  15.2356516  62.3919160
  90.7152073  21.1635245  61.2279347  90.6005589  20.2620503  61.5286446
  89.8596591  21.4098942  60.8764163  97.7943911  29.1052986  62.8266848
  97.3507765  28.3189364  62.5087752  98.4561125  29.2932136  62.1610738
  92.5531032  30.6348787  57.3527526  93.1038457  30.5065851  56.5804520
  91.7142508  30.9343676  57.0022419  99.8925149  29.3855786  60.8548249
  99.8743625  30.2064667  60.3628518 100.8145069  29.2609861  61.0798390
  96.3498203  26.8999915  61.6971757  96.8826540  26.1388203  61.4671065
  95.8212285  26.6073567  62.4395912  87.5853749  24.3293512  50.0454001
  88.4228971  24.7390520  49.8287709  87.7632017  23.3892954  50.0154195
  99.4818181  21.9968592  45.7337834  98.9664805  22.7673197  45.9726221
  99.2095490  21.3233728  46.3570895  97.0665292  16.8418293  50.7923072
  96.2106888  16.4525143  50.6128711  97.4792244  16.9210254  49.9322858
  98.5964439  14.3764636  55.1914632  98.0929234  14.3394771  54.3782437
  98.8895046  15.2857379  55.2511289  94.8407325  14.4603366  54.1980814
  95.7060321  14.2646175  53.8386703  94.9084834  14.2313718  55.1250171
 104.4552455  24.7500947  47.6691008 103.6781898  24.4112106  47.2246170
 105.1343936  24.7553570  46.9945973  99.2704484  19.8695684  47.5597615
  98.9654620  20.1841834  48.4107758 100.2234926  19.9477104  47.6024948
  97.7150916  26.0285908  49.2090569  97.1872278  25.2938667  48.8963807
  97.2138419  26.8060584  48.9630538 102.6943762  24.2234928  54.3257616
 102.0367437  24.9134190  54.4137744 103.4984161  24.6131360  54.6691602
  92.4469644  16.6905574  51.5697181  93.0213396  16.4680755  50.8370374
  93.0340626  16.7594268  52.3225782 101.5049221  22.5779301  52.3761557
 102.0181103  23.2109293  52.8783267 102.1550445  21.9780496  52.0104917
  92.7739231  18.7210035  45.5893066  91.9376543  19.0584721  45.9102341
  92.6344000  18.5859015  44.6520203  94.7492311  13.5646823  50.2972250
  94.0956724  13.2495840  49.6728865  94.7072786  12.9422563  51.0232073
  95.8603516  23.8466118  42.2125542  94.9530578  23.6155371  42.4116691
  96.3574548  23.0503737  42.3999524  98.7671595  32.5563625  45.1322228
  98.0933294  32.8595322  45.7407186  99.1537417  33.3592705  44.7827685
  97.9830052  20.0528756  54.6219898  97.0652613  20.2743703  54.4641586
  98.3990195  20.1275067  53.7631605  98.7665100  21.4520172  49.7522578
  99.5136919  21.9641569  49.4429700  99.0356689  21.1304225  50.6126972
  97.0391750  23.9478713  46.7349532  96.1302969  23.6637746  46.8322002
  97.0686834  24.3677791  45.8752839 102.2711017  27.5585302  50.5040700
 101.8173344  26.7176212  50.5605890 101.6404984  28.1946701  50.8415480
 101.2143937  18.4877288  51.7341367 100.4766694  17.9754675  52.0651610
 101.4670710  18.0477670  50.9224644 100.7143956  29.3961799  51.4390518
 101.0066931  29.9566856  50.7202884 101.2242577  29.6890360  52.1943677
  87.6079920  21.6684227  50.7164735  87.4104320  21.0753588  49.9915801
  87.0526584  21.3636437  51.4340673  95.5876644  21.5607333  52.8359328
  95.6425254  20.6081170  52.7601804  94.7767846  21.7166772  53.3200626
  96.7367838  25.4887456  44.0737611  96.2987267  24.7723315  43.6143248
  97.4778278  25.7163571  43.5122702  93.5269004  20.1784393  50.5949707
  92.7136869  20.4778564  51.0014899  94.0227998  19.7840082  51.3124189
  95.6777582  30.1742150  52.5283971  95.6353760  30.4002996  51.5992503
  96.5940280  29.9405525  52.6769772  99.1243215  20.6426218  59.4264600
  99.4792603  20.8697691  60.2859066  99.7715347  20.9744594  58.8041856
 104.8540952  23.7644653  50.1313929 104.7158851  23.9546249  49.2035119
 104.4977171  24.5264036  50.5881981  93.0183078  17.7502749  56.2110942
  93.6582458  17.6091508  55.5133905  92.1860609  17.4637262  55.8349543
 104.8810332  25.8321180  55.1425201 105.3146839  25.7396470  55.9908255
 105.5941913  25.8078681  54.5045217  93.7943382  27.0505179  52.3245934
  94.5883981  26.5555499  52.1228509  93.0835075  26.5223042  51.9613640
  98.6138227  29.4323275  56.6758302  98.6675249  30.0014211  57.4436017
  97.7453008  29.6025160  56.3112339  90.1026146  21.1948261  48.4005687
  89.1723734  21.1332716  48.6175649  90.1983618  20.6724214  47.6042328
  90.0211695  17.7203074  50.9883928  90.2818512  18.6348407  50.8793089
  90.8428867  17.2527516  51.1380541  91.4936620  19.1340831  58.1582753
  92.1659674  18.9258193  57.5095402  90.6666407  18.9362917  57.7187985
 105.7425882  25.8744881  57.6758086 105.9361772  26.7790692  57.9217361
 105.6426500  25.4152300  58.5096671  97.3962192  15.7602772  60.1748414
  96.7490107  16.4592721  60.0812890  98.1663208  16.1938916  60.5424662
 100.8040990  26.0251624  63.2498967 100.6526497  25.7962176  62.3329051
 100.7945670  26.9822225  63.2630312  97.5726327  23.5983537  58.2345233
  98.5018387  23.7494696  58.0614201  97.1517357  23.6867557  57.3793880
  96.3714658  27.6234201  56.0043771  96.2325744  27.2552985  56.8769709
  95.5829255  28.1381840  55.8327729  96.9662810  32.7243298  47.3469308
  97.1414566  32.2531341  48.1614930  96.2795598  33.3509064  47.5750568
  97.9219874  27.0015804  53.3932609  97.5869706  26.9616574  54.2890259
  97.4223819  26.3360520  52.9203019  91.8964117  22.4083434  58.9185190
  91.7583915  21.6763673  59.5196729  92.8069041  22.3192334  58.6369378
 100.8579065  24.3471838  43.6669668 100.2408236  23.6218666  43.5702721
 100.3895554  25.1081198  43.3236743  94.5246418  22.1203393  58.4068870
  95.2346037  21.4796585  58.3655488  94.4815726  22.3716288  59.3295050
 102.5133197  29.0570746  61.3275449 102.4545743  28.3729967  60.6606032
 102.9152715  29.7989736  60.8756075  93.2375352  19.1068611  60.2264509
  92.7012709  18.6559349  60.8786105  92.6492061  19.2414520  59.4834973
  91.5323896  35.8732660  54.1209168  91.7720494  36.5051184  54.7988186
  90.6893092  35.5220700  54.4074527  92.6477611  18.5657262  42.7890973
  91.7707077  18.4446063  42.4253219  93.1235364  17.7743341  42.5369861
 102.5150604  27.0210330  59.5589429 101.6277383  26.6836252  59.6815827
 103.0849155  26.2893362  59.7958194  84.1679751  23.3534422  52.8832480
  84.8550791  23.0396152  52.2953495  84.0127880  24.2575787  52.6099731
  88.9714473  18.2424619  57.3117504  88.8872662  17.6350288  56.5767914
  88.1497180  18.7333637  57.3127000  96.0451757  31.6811783  56.5250672
  95.9721929  32.4866754  57.0369976  95.6029151  31.8803749  55.6998693
  95.8341537  30.9183553  50.0353493  95.0509059  31.4605233  50.1291718
  96.5334282  31.4357532  50.4347734  99.1438187  16.7278182  52.6787699
  99.6406887  15.9748145  52.3588769  98.3725169  16.7642499  52.1130908
  98.5050441  31.5798617  58.6808830  99.2178413  32.2146082  58.6084732
  98.0140470  31.6762483  57.8648832 100.2267968  25.4849869  50.2526122
  99.2924247  25.6051332  50.0830826 100.4044636  24.5822336  49.9886132
  95.7273156  18.8695565  52.4059383  95.3570943  18.3166606  53.0940289
  96.2232248  18.2653699  51.8534383 103.6140519  21.3267189  50.7876156
 104.0800971  22.1595180  50.7136459 104.0648020  20.8612170  51.4921415
  93.5562355  29.3293060  59.5014401  94.2571814  29.9629543  59.6543795
  93.0857470  29.6707792  58.7410040 101.6816750  27.6711010  47.7862308
 101.9576594  27.5567605  48.6956182 100.8121249  27.2728495  47.7474481
 101.3563641  21.8837668  57.3266952 100.7035091  22.1313575  56.6719404
 101.7344020  21.0701806  56.9929429  98.3170814  31.9197361  51.4295122
  98.4993209  31.1019017  51.8922874  99.1403800  32.1365053  50.9920012
  98.6512980  30.8465546  48.6910170  99.1800746  30.3358001  48.0780332
  98.9141199  30.5308076  49.5555703  97.4051214  22.6257479  63.8132989
  96.7291851  22.5251608  64.4835364  98.2278847  22.4696692  64.2768986
  89.1530073  28.8629415  56.4345504  89.7383509  28.1173103  56.5673408
  88.9554911  29.1733372  57.3182168  92.0068728  31.8980663  51.4507946
  91.3379103  32.3826790  50.9671986  91.8681598  32.1449883  52.3651325
  83.7447727  21.4335015  55.1549947  83.7831827  20.8998606  55.9487065
  83.2388020  20.9070221  54.5360924  96.1473996  33.9324406  58.0490605
  96.6992304  34.0956028  58.8139690  96.4880190  34.5228844  57.3770629
  91.1238490  16.2799556  58.6512489  91.1879816  17.1414387  58.2389887
  91.0605610  15.6673558  57.9184848  90.5990762  18.3522689  62.2985524
  91.2262801  17.9699766  62.9123048  89.7418681  18.1336890  62.6641216
 100.9984871  28.7585664  63.9039259 101.5424775  29.3715622  63.4094214
 100.4171716  29.3165242  64.4206272  87.3756305  20.1599118  48.2303878
  87.6709746  19.2509796  48.1770932  86.4744341  20.1386857  47.9084881
  99.2842384  31.8806382  55.0354287  99.1593523  31.0796122  54.5265232
  99.9421475  32.3752575  54.5468257  90.9050552  18.2355114  54.2131427
  90.1837138  18.8491082  54.0738900  91.6943808  18.7712879  54.1348073
 101.3477292  29.6815402  56.6633837 100.4007628  29.5620753  56.5912164
 101.6960065  28.7937900  56.7460098  93.7076865  15.5709541  60.4872079
  94.2311267  15.8171837  61.2498388  93.4889199  16.4029576  60.0675216
  89.1044147  17.8413215  48.3543204  88.7756853  16.9610594  48.1718310
  89.4583517  17.7860884  49.2419593  98.3523725  29.4768118  52.8638189
  98.2048688  28.5484825  53.0445759  99.1777219  29.4988209  52.3795264
  92.2185970  18.1286185  48.7218681  92.5582042  18.6572106  47.9997290
  92.6658090  18.4666591  49.4977248 101.9557847  30.2996677  53.9503062
 102.8804395  30.0939538  53.8127513 101.7873151  30.0513078  54.8592403
  94.9129410  16.5123236  58.1721749  94.5726231  15.7131049  58.5742429
  94.2068417  16.8124947  57.5998583  95.5645882  13.5972548  56.6249072
  96.3871952  13.1233026  56.5027963  95.8083946  14.3763032  57.1247759
  94.2054117  16.6260807  46.9211974  94.9262479  17.0042059  46.4175691
  93.5819421  17.3449684  47.0246952  98.3485240  17.3305956  47.8570306
  98.5648854  18.2130594  47.5559135  97.8679307  16.9392169  47.1275948
  93.0884461  20.2891669  54.4341051  92.9429042  20.6031972  55.3265332
  92.6109665  20.9076569  53.8811950  94.9480844  17.2794217  54.4821941
  94.9342413  16.3835310  54.1454238  95.6653272  17.2864881  55.1160227
  96.8006975  17.7131557  56.5275068  96.5424752  18.6348628  56.5259398
  96.2692015  17.3161992  57.2175532 101.7453163  30.8182344  49.3065153
 101.9190041  30.2528767  48.5539006 102.2382055  31.6183239  49.1244643
  87.5630123  22.8297013  57.3728712  87.0183591  23.6056821  57.5048986
  88.4409473  23.1767818  57.2147834  94.3517740  16.1608597  49.7509511
  94.4733651  15.2325243  49.9500398  94.0619782  16.1747283  48.8387826
  97.2208930  13.8463508  52.8876230  97.2430627  13.9102841  51.9328210
  97.6376989  13.0068016  53.0816737 102.7328336  30.1349109  46.4062052
 103.4279241  30.7555801  46.6249366 103.0751486  29.2844460  46.6814429
  88.3496145  21.9566910  60.2658869  87.6077881  22.1049545  60.8523499
  88.0288889  22.2175175  59.4025618 104.6319759  27.5848814  47.9349382
 105.1571083  27.9236087  47.2098702 104.5442112  26.6495829  47.7512517
  96.2939808  31.4982888  60.0639259  96.6026934  31.2532035  60.9361959
  97.0915290  31.7029526  59.5758129  96.3160420  33.6520797  52.2944636
  95.8765410  33.1597176  52.9877492  97.0668537  33.1093765  52.0536711
  88.7952759  29.8432338  52.2969264  89.6210779  29.5436110  51.9167907
  88.4446811  29.0739961  52.7459052  93.7634292  29.1958806  54.3666937
  93.1414301  28.5329512  54.0669165  94.4339159  29.2219938  53.6840585
  86.9961364  27.7618665  53.2558197  86.1593272  27.3340839  53.0742198
  86.9685009  27.9551108  54.1928988  93.8358819  17.6740595  63.9599443
  93.8846975  18.5502717  63.5777213  94.3781334  17.1317988  63.3871086
 104.3213665  28.2181718  63.2400580 103.5309209  28.2005857  62.7005080
 104.0847020  28.7570011  63.9949617 104.4411540  25.0674184  60.5533309
 104.4909545  24.9024192  61.4948832 104.3325463  24.2001443  60.1631190
  93.3247799  27.7462730  47.8425398  93.4735919  28.4298194  47.1892071
  94.1314242  27.7267820  48.3574853 101.7315303  21.0505112  61.8692616
 102.6325165  20.9111577  61.5776613 101.8063277  21.2159567  62.8090793
  96.0658108  18.4271967  60.7145802  95.1961417  18.7205533  60.4428390
  96.3017588  19.0112412  61.4353066 105.9429737  27.4871126  60.7975330
 105.6514545  27.8501106  61.6338791 105.3301868  26.7738134  60.6188662
 104.1916925  22.6103740  59.2655388 104.6671047  22.8031387  58.4574240
 103.2682491  22.6662926  59.0198772  91.0800432  23.7727907  48.8486467
  90.8346474  22.8690237  49.0466677  91.2496346  23.7745058  47.9065945
  98.7697142  14.6451584  58.2311222  99.2879086  15.3812611  57.9057711
  98.4152274  14.9515577  59.0657981  90.3496079  19.5056265  46.3472628
  89.6565324  19.5800620  45.6912664  90.1047831  18.7416609  46.8694145
  96.8243204  30.2410860  45.3137145  96.2517171  30.8601047  44.8607617
  97.3975998  30.7910222  45.8477067 102.8918594  19.4869500  57.4983694
 103.8436017  19.5867598  57.5195918 102.7222045  18.6947769  58.0081778
 100.9132974  16.5725084  57.6843095 100.3182906  16.8530096  56.9889584
 100.6282670  17.0618985  58.4559836 100.0440464  30.5248010  46.4445727
 100.9771137  30.4593572  46.6478603  99.9563677  31.3604277  45.9860260
 102.6728481  29.8413881  43.4049675 102.5942112  29.5073744  44.2985433
 103.4938148  30.3335649  43.4041147 105.3706672  22.7075620  56.6125994
 105.3382992  21.7691621  56.7985677 105.9807296  22.7859657  55.8791819
  97.2090003  21.5771673  42.6553198  98.1549108  21.4477881  42.7241616
  96.8304248  20.8386335  43.1322626 105.5201160  19.4986663  56.6584277
 105.0040209  18.7145120  56.4714206 106.4041109  19.1705380  56.8230796
  97.0928695  25.6289419  64.1153855  98.0131705  25.8068018  64.3093901
  97.0578278  24.6845465  63.9633554  95.3932920  19.5021649  42.5908083
  94.4864375  19.2054762  42.6670797  95.6708901  19.2051468  41.7242369
  86.3110860  20.8228013  53.0407129  85.9913645  19.9693321  52.7481503
  85.7644289  21.0376591  53.7965097  90.0890768  23.5390454  56.7576636
  90.3076778  24.4707562  56.7764670  90.5016542  23.1798428  57.5431440
  97.0094986  14.0458539  48.7452324  96.1995714  13.7005624  49.1207570
  97.6979403  13.7366083  49.3339936  94.9618633  19.1123660  66.1479385
  94.8615360  20.0618017  66.0791476  94.7440175  18.7841898  65.2755455
  94.1631705  16.3608585  42.7320062  95.0250869  16.6863483  42.9915879
  94.3482049  15.5740081  42.2193128  86.1799120  24.4430924  55.0100251
  85.4862592  24.0284877  54.4970205  86.9272111  24.4851461  54.4133670
 102.3164341  15.2337111  49.8755285 101.7363010  15.8921915  49.4933338
 102.0500274  14.4114456  49.4642703 100.7667907  14.6342169  52.0776605
 101.2667686  14.7458703  51.2690924 101.4103515  14.3303222  52.7177414
  94.8249903  22.5420798  64.9644446  94.3416985  23.3421159  65.1708335
  94.9110842  22.5528743  64.0111890  88.0935863  24.3749178  52.8866266
  88.0706551  24.4736865  51.9348149  88.4036499  25.2214329  53.2083432
  90.7523241  26.4325333  57.0012880  91.7066494  26.4009275  56.9342812
  90.5535764  25.9715957  57.8163106  91.3422623  25.0026449  59.5683678
  92.1615512  25.4970528  59.5918515  91.6159431  24.0858417  59.5401245
 101.0989219  17.3937201  48.9311633 100.2115074  17.6786852  48.7131828
 101.5143208  17.2330965  48.0838910 104.4503755  17.4183722  52.6465973
 105.2264145  17.9080175  52.9190589 103.7251889  17.8441777  53.1037842
  89.1073470  31.9744953  54.0183078  88.9727938  31.2145354  53.4521076
  88.6905532  32.6985852  53.5511867 100.2432433  27.1581876  43.0259653
 100.9468283  27.3631879  43.6417309  99.5195081  27.7258638  43.2908737
 101.0730243  22.9091737  49.1461924 101.0165444  23.3660289  48.3069556
 101.6258585  22.1482422  48.9684766 104.8835049  18.6981469  49.9712043
 104.6271983  18.2978105  50.8020251 104.2587917  19.4125263  49.8462182
  92.2642595  32.8714270  54.2301521  92.1474980  33.8159702  54.1280211
  91.4435042  32.5687831  54.6187320 102.1519130  27.5964405  45.0758113
 102.9864734  27.1645604  44.8935588 101.9903473  27.4246419  46.0035008
 101.8065022  24.0996519  46.4414453 101.7513826  23.9340790  45.5002897
 101.1811077  24.8072552  46.5976642  86.5957537  19.3364583  60.2675875
  87.2416401  18.8263537  60.7563100  86.3874688  20.0733265  60.8419300
  99.1210929  26.4045431  65.7668015  99.9902089  26.5786083  65.4054650
  98.6417681  27.2239847  65.6443745  95.1161148  13.6004628  46.0199771
  95.1039817  14.5446468  46.1768042  96.0084570  13.4174773  45.7259232
  93.2897110  33.5242532  57.4457449  94.1924356  33.5566142  57.7623944
  93.0634480  32.5942982  57.4603785  95.0450712  32.2773518  54.1067528
  94.0946343  32.2775380  53.9931900  95.3483198  31.5306253  53.5903562
  90.9355028  16.4832200  64.3650889  91.7986490  16.1269005  64.5754214
  90.3620439  16.1446095  65.0526293 103.4479927  39.9196961  51.0971706
 102.8844792  39.8286898  50.3287994 103.3332322  39.0996865  51.5774198
 100.9944359  41.4148153  53.9355926 101.7865651  41.0738977  53.5202226
 101.2341009  41.5243128  54.8558080 102.9535113  40.6757066  46.8073305
 103.7265989  40.1286053  46.6686181 103.3060512  41.5401315  47.0187766
 104.7920156  42.0033448  60.0140204 104.5010021  42.9079079  59.8986871
 105.4277140  42.0449976  60.7284274 105.7176362  39.3810297  56.6041564
 106.3139935  39.1566319  55.8898527 105.7751334  38.6395042  57.2067012
 105.2901391  36.8349732  44.4391755 105.5426911  36.3131253  43.6775218
 104.3525950  36.6715877  44.5418439 105.0097680  38.7377838  46.6416130
 104.8933938  38.0622741  47.3097214 105.1199939  38.2510212  45.8248283
 103.2022522  38.1408660  53.0426702 102.2773019  38.0084875  53.2504394
 103.4506935  38.9202880  53.5396645 100.5631333  37.7841934  53.8770492
 100.6923714  38.0376413  54.7909903  99.8828784  38.3769642  53.5575147
 104.7330820  48.4539184  49.9760966 104.6554850  49.4047009  50.0549446
 104.1292464  48.1085056  50.6335892 105.4794422  38.4352503  62.1940300
 106.2209107  38.9737547  61.9175123 104.7731408  39.0618792  62.3511851
 103.7230620  40.4228723  54.7494598 104.2931977  40.8515992  54.1112083
 104.3138732  40.1411308  55.4478784 105.7675425  36.9980394  48.6204400
 106.4699468  37.4501438  49.0878327 105.4356053  36.3564213  49.2484293
 104.2155786  35.5892151  62.9955610 103.5854447  36.2708432  63.2291006
 104.1091874  35.4775233  62.0508748  99.5100759  35.2563947  53.9221534
  98.7199813  35.5121476  53.4461644 100.0012006  36.0712285  54.0273574
 101.4615504  35.6208526  50.8805011 100.6646667  35.7327220  51.3988506
 101.2341096  35.9595178  50.0145901  97.7938462  35.5094437  56.3536525
  98.0446500  36.3941447  56.6194101  98.3298010  35.3299039  55.5811616
 103.4936529  29.8912917  65.3580861 103.1003475  29.3379115  66.0328505
 104.3102669  30.2023495  65.7487378 100.4598587  41.3296775  49.2694431
 100.9723107  42.1240025  49.4199995 101.1121300  40.6323065  49.2028032
 102.2693471  44.4462531  51.3517184 102.4460100  45.3680496  51.1638168
 103.0650305  44.1320950  51.7811564 101.5545828  36.4927163  61.2279347
 101.4399343  35.5912420  61.5286446 100.6990346  36.7390860  60.8764163
 103.3924787  45.9640705  57.3527526 103.9432212  45.8357768  56.5804520
 102.5536263  46.2635594  57.0022419  98.4247503  39.6585429  50.0454001
  99.2622725  40.0682438  49.8287709  98.6025771  38.7184871  50.0154195
 105.6801079  29.7895284  54.1980814 106.5454076  29.5938092  53.8386703
 105.7478588  29.5605635  55.1250171 103.2863398  32.0197492  51.5697181
 103.8607150  31.7972673  50.8370374 103.8734381  32.0886186  52.3225782
 103.6132985  34.0501953  45.5893066 102.7770298  34.3876639  45.9102341
 103.4737755  33.9150932  44.6520203 105.5886066  28.8938741  50.2972250
 104.9350478  28.5787758  49.6728865 105.5466540  28.2714481  51.0232073
  98.4473675  36.9976145  50.7164735  98.2498074  36.4045505  49.9915801
  97.8920339  36.6928355  51.4340673 106.4270398  36.8899251  52.8359328
 106.4819008  35.9373087  52.7601804 105.6161600  37.0458690  53.3200626
 104.3662758  35.5076311  50.5949707 103.5530624  35.8070481  51.0014899
 104.8621752  35.1132000  51.3124189 103.8576833  33.0794666  56.2110942
 104.4976212  32.9383425  55.5133905 103.0254364  32.7929180  55.8349543
 104.6337137  42.3797097  52.3245934 105.4277735  41.8847417  52.1228509
 103.9228829  41.8514960  51.9613640 100.9419900  36.5240178  48.4005687
 100.0117488  36.4624634  48.6175649 101.0377372  36.0016131  47.6042328
 100.8605449  33.0494991  50.9883928 101.1212267  33.9640325  50.8793089
 101.6822622  32.5819434  51.1380541 102.3330375  34.4632748  58.1582753
 103.0053428  34.2550111  57.5095402 101.5060161  34.2654834  57.7187985
 102.7357872  37.7375351  58.9185190 102.5977670  37.0055590  59.5196729
 103.6462795  37.6484252  58.6369378 105.3640173  37.4495311  58.4068870
 106.0739791  36.8088503  58.3655488 105.3209481  37.7008206  59.3295050
 104.0769107  34.4360529  60.2264509 103.5406464  33.9851267  60.8786105
 103.4885815  34.5706438  59.4834973 102.3717650  51.2024578  54.1209168
 102.6114248  51.8343102  54.7988186 101.5286847  50.8512618  54.4074527
 103.4871366  33.8949180  42.7890973 102.6100832  33.7737981  42.4253219
 103.9629119  33.1035258  42.5369861  95.0073506  38.6826340  52.8832480
  95.6944546  38.3688070  52.2953495  94.8521634  39.5867704  52.6099731
  99.8108228  33.5716536  57.3117504  99.7266417  32.9642206  56.5767914
  98.9890934  34.0625555  57.3127000 104.3956109  44.6584978  59.5014401
 105.0965569  45.2921461  59.6543795 103.9251224  44.9999709  58.7410040
  99.9923827  44.1921333  56.4345504 100.5777264  43.4465021  56.5673408
  99.7948666  44.5025290  57.3182168 102.8462482  47.2272580  51.4507946
 102.1772858  47.7118708  50.9671986 102.7075352  47.4741801  52.3651325
  94.5841482  36.7626933  55.1549947  94.6225581  36.2290524  55.9487065
  94.0781775  36.2362139  54.5360924 101.9632244  31.6091474  58.6512489
 102.0273571  32.4706305  58.2389887 101.8999364  30.9965475  57.9184848
 101.4384517  33.6814606  62.2985524 102.0656555  33.2991684  62.9123048
 100.5812436  33.4628808  62.6641216  98.2150059  35.4891035  48.2303878
  98.5103500  34.5801714  48.1770932  97.3138095  35.4678775  47.9084881
 101.7444306  33.5647032  54.2131427 101.0230892  34.1783000  54.0738900
 102.5337562  34.1004797  54.1348073 104.5470620  30.9001458  60.4872079
 105.0705022  31.1463755  61.2498388 104.3282953  31.7321493  60.0675216
  99.9437901  33.1705133  48.3543204  99.6150607  32.2902512  48.1718310
 100.2977272  33.1152802  49.2419593 103.0579724  33.4578103  48.7218681
 103.3975797  33.9864024  47.9997290 103.5051845  33.7958509  49.4977248
 105.7523165  31.8415154  58.1721749 105.4119985  31.0422967  58.5742429
 105.0462171  32.1416864  57.5998583 105.0447871  31.9552724  46.9211974
 105.7656234  32.3333977  46.4175691 104.4213175  32.6741601  47.0246952
 103.9278216  35.6183587  54.4341051 103.7822796  35.9323890  55.3265332
 103.4503419  36.2368487  53.8811950 105.7874598  32.6086135  54.4821941
 105.7736167  31.7127228  54.1454238 106.5047027  32.6156798  55.1160227
  98.4023878  38.1588931  57.3728712  97.8577346  38.9348739  57.5048986
  99.2803228  38.5059735  57.2147834 105.1911494  31.4900515  49.7509511
 105.3127406  30.5617161  49.9500398 104.9013537  31.5039201  48.8387826
  99.1889900  37.2858827  60.2658869  98.4471636  37.4341463  60.8523499
  98.8682644  37.5467093  59.4025618  99.6346513  45.1724256  52.2969264
 100.4604533  44.8728028  51.9167907  99.2840565  44.4031878  52.7459052
 104.6028046  44.5250724  54.3666937 103.9808056  43.8621429  54.0669165
 105.2732913  44.5511856  53.6840585  97.8355118  43.0910582  53.2558197
  96.9987027  42.6632757  53.0742198  97.8078764  43.2843026  54.1928988
 104.6752574  33.0032512  63.9599443 104.7240729  33.8794635  63.5777213
 105.2175088  32.4609905  63.3871086 104.1641553  43.0754648  47.8425398
 104.3129674  43.7590112  47.1892071 104.9707997  43.0559738  48.3574853
 101.9194186  39.1019825  48.8486467 101.6740228  38.1982155  49.0466677
 102.0890101  39.1036976  47.9065945 101.1889834  34.8348183  46.3472628
 100.4959079  34.9092538  45.6912664 100.9441586  34.0708526  46.8694145
 106.2326675  34.8313567  42.5908083 105.3258130  34.5346680  42.6670797
 106.5102656  34.5343385  41.7242369  97.1504615  36.1519931  53.0407129
  96.8307399  35.2985239  52.7481503  96.6038043  36.3668509  53.7965097
 100.9284522  38.8682372  56.7576636 101.1470532  39.7999479  56.7764670
 101.3410296  38.5090346  57.5431440 105.8012388  34.4415577  66.1479385
 105.7009115  35.3909934  66.0791476 105.5833930  34.1133816  65.2755455
 105.0025459  31.6900502  42.7320062 105.8644623  32.0155401  42.9915879
 105.1875803  30.9031998  42.2193128  97.0192875  39.7722842  55.0100251
  96.3256346  39.3576795  54.4970205  97.7665866  39.8143379  54.4133670
 105.6643658  37.8712716  64.9644446 105.1810740  38.6713076  65.1708335
 105.7504597  37.8820661  64.0111890  98.9329617  39.7041096  52.8866266
  98.9100306  39.8028783  51.9348149  99.2430254  40.5506247  53.2083432
 101.5916995  41.7617251  57.0012880 102.5460249  41.7301193  56.9342812
 101.3929519  41.3007875  57.8163106 102.1816377  40.3318367  59.5683678
 103.0009266  40.8262446  59.5918515 102.4553185  39.4150335  59.5401245
  99.9467224  47.3036870  54.0183078  99.8121692  46.5437271  53.4521076
  99.5299286  48.0277770  53.5511867 103.1036350  48.2006187  54.2301521
 102.9868734  49.1451620  54.1280211 102.2828796  47.8979749  54.6187320
  97.4351292  34.6656501  60.2675875  98.0810155  34.1555455  60.7563100
  97.2268443  35.4025182  60.8419300 104.1290864  48.8534449  57.4457449
 105.0318111  48.8858059  57.7623944 103.9028234  47.9234900  57.4603785
 105.8844466  47.6065436  54.1067528 104.9340097  47.6067297  53.9931900
 106.1876952  46.8598170  53.5903562 101.7748783  31.8124118  64.3650889
 102.6380244  31.4560923  64.5754214 101.2014193  31.4738013  65.0526293
 105.8467260  54.0118257  52.8832480 106.5338300  53.6979988  52.2953495
 105.6915389  54.9159622  52.6099731 105.4235236  52.0918851  55.1549947
 105.4619336  51.5582442  55.9487065 104.9175529  51.5654056  54.5360924
  91.5323897  12.8794783  40.8454474  91.7720495  13.5113307  41.5233493
  90.6893093  12.5282823  41.1319834 103.4479928  16.9259084  37.8217012
 102.8844793  16.8349021  37.0533300 103.3332323  16.1058988  38.3019505
 100.9944360  18.4210275  40.6601233 101.7865652  18.0801100  40.2447532
 101.2341010  18.5305250  41.5803386 102.9535114  17.6819188  33.5318612
 103.7265990  17.1348176  33.3931487 103.3060513  18.5463438  33.7433073
 104.7920157  19.0095571  46.7385511 104.5010023  19.9141202  46.6232177
 105.4277141  19.0512098  47.4529581 105.7176364  16.3872419  43.3286871
 106.3139936  16.1628442  42.6143834 105.7751335  15.6457165  43.9312319
 103.2022523  15.1470783  39.7672009 102.2773020  15.0146997  39.9749701
 103.4506937  15.9265002  40.2641952 100.5631334  14.7904057  40.6015798
 100.6923716  15.0438536  41.5155210  99.8828786  15.3831765  40.2820453
 104.7330822  25.4601307  36.7006272 104.6554851  26.4109132  36.7794753
 104.1292465  25.1147179  37.3581199 103.7230621  17.4290846  41.4739905
 104.2931978  17.8578114  40.8357390 104.3138733  17.1473431  42.1724091
 100.4598588  18.3358898  35.9939737 100.9723109  19.1302148  36.1445302
 101.1121301  17.6385188  35.9273339 102.2693473  21.4524654  38.0762490
 102.4460101  22.3742619  37.8883474 103.0650306  21.1383073  38.5056870
 103.3924788  22.9702828  44.0772833 103.9432213  22.8419891  43.3049827
 102.5536264  23.2697717  43.7267725  98.4247505  16.6647552  36.7699308
  99.2622727  17.0744560  36.5533015  98.6025772  15.7246994  36.7399502
  98.4473676  14.0038267  37.4410041  98.2498076  13.4107628  36.7161108
  97.8920340  13.6990477  38.1585980 104.6337138  19.3859219  39.0491241
 105.4277737  18.8909539  38.8473816 103.9228831  18.8577082  38.6858946
 102.3717651  28.2086701  40.8454474 102.6114250  28.8405225  41.5233493
 101.5286848  27.8574741  41.1319834  95.0073507  15.6888462  39.6077787
  95.6944547  15.3750192  39.0198802  94.8521636  16.5929827  39.3345038
 104.3956110  21.6647101  46.2259708 105.0965570  22.2983583  46.3789102
 103.9251225  22.0061832  45.4655347  99.9923828  21.1983456  43.1590811
 100.5777265  20.4527143  43.2918715  99.7948667  21.5087412  44.0427474
 102.8462484  24.2334703  38.1753253 102.1772859  24.7180831  37.6917293
 102.7075353  24.4803923  39.0896631  94.5841483  13.7689056  41.8795254
  94.6225583  13.2352646  42.6732372  94.0781776  13.2424261  41.2606231
  98.4023879  15.1651054  44.0974019  97.8577347  15.9410862  44.2294293
  99.2803229  15.5121858  43.9393140  99.1889901  14.2920950  46.9904176
  98.4471637  14.4403585  47.5768806  98.8682645  14.5529215  46.1270925
  99.6346515  22.1786379  39.0214570 100.4604534  21.8790150  38.6413214
  99.2840567  21.4094001  39.4704359 104.6028048  21.5312847  41.0912244
 103.9808057  20.8683552  40.7914472 105.2732915  21.5573979  40.4085892
  97.8355120  20.0972705  39.9803504  96.9987028  19.6694879  39.7987505
  97.8078765  20.2905148  40.9174295 104.1641555  20.0816770  34.5670704
 104.3129675  20.7652235  33.9137377 104.9707998  20.0621860  35.0820160
 101.9194188  16.1081948  35.5731773 101.6740230  15.2044278  35.7711983
 102.0890102  16.1099098  34.6311251 100.9284524  15.8744494  43.4821942
 101.1470533  16.8061602  43.5009976 101.3410298  15.5152469  44.2676746
  97.0192876  16.7784965  41.7345558  96.3256348  16.3638917  41.2215512
  97.7665867  16.8205501  41.1378976  98.9329619  16.7103218  39.6111572
  98.9100307  16.8090906  38.6593456  99.2430255  17.5568369  39.9328739
 101.5916997  18.7679373  43.7258187 102.5460250  18.7363316  43.6588118
 101.3929520  18.3069997  44.5408413 102.1816379  17.3380489  46.2928985
 103.0009268  17.8324568  46.3163822 102.4553186  16.4212458  46.2646552
  99.9467225  24.3098993  40.7428385  99.8121693  23.5499394  40.1766383
  99.5299288  25.0339893  40.2757174 103.1036351  25.2068310  40.9546827
 102.9868735  26.1513742  40.8525518 102.2828797  24.9041871  41.3432627
 104.1290865  25.8596572  44.1702756 105.0318112  25.8920182  44.4869251
 103.9028235  24.9297023  44.1849092 105.8844467  24.6127558  40.8312834
 104.9340098  24.6129420  40.7177207 106.1876954  23.8660293  40.3148869
 105.8467261  31.0180380  39.6077787 106.5338301  30.7042110  39.0198802
 105.6915390  31.9221745  39.3345038 105.4235238  29.0980973  41.8795254
 105.4619337  28.5644564  42.6732372 104.9175530  28.5716179  41.2606231
  15.9578440  45.1705802  96.5068445  15.8792071  44.8365666  97.4004203
  16.7788107  45.6627570  96.5059918  22.3129445  58.9159850  99.5104941
  21.6617425  59.5013930  99.1238955  23.1073808  59.4466045  99.5699979
  16.2385072  56.0048987  99.9092075  17.0115948  55.4577974  99.7704951
  16.5910471  56.8693236 100.1206537  18.5751350  52.1641653  97.5410525
  18.8276870  51.6423174  96.7793988  17.6375909  52.0007799  97.6437209
  23.7904710  56.6050282 100.0473925  23.1550543  56.6784908 100.7594830
  23.4602116  57.1943881  99.3693005  29.0203060  51.1052665 106.2518247
  29.7528232  50.5351882 106.4856077  28.2642415  50.7174265 106.6924753
  18.2947639  54.0669759  99.7434900  18.1783897  53.3914663 100.4115985
  18.4049898  53.5802133  98.9267053  20.6379179  53.5279906 103.4481590
  20.2737387  53.0010527 104.1594511  21.4946295  53.1378375 103.2748075
  20.2784666  48.5569806  98.4442938  20.4459069  49.4250042  98.8113409
  20.0881836  48.7197088  97.5204227  20.2573887  51.0127463  99.4289605
  20.1373513  51.4584514 100.2675085  19.5626476  51.3612781  98.8703143
  18.0180779  63.7831105 103.0779736  17.9404809  64.7338930 103.1568217
  17.4142423  63.4376978 103.7354662  25.9558953  51.4848937 100.2569939
  26.8676810  51.7176323 100.0817636  25.4468601  52.0685981  99.6945018
  24.5628536  56.4674755 107.6483520  23.9337398  56.6320469 106.9459588
  24.1754198  56.8816365 108.4194484  28.4417768  57.4029193 105.0027884
  27.7568806  57.7828094 104.4524917  28.5261617  58.0124520 105.7359832
  20.1156498  56.2049163 104.9133605  20.5794843  56.4836866 104.1238228
  19.8513296  55.3032608 104.7306696  19.0525384  52.3272316 101.7223171
  19.7549427  52.7793359 102.1897097  18.7206012  51.6856134 102.3503064
  34.9020520  54.2699856 106.1230556  34.1484229  53.7007254 105.9674561
  35.0368062  54.2362520 107.0701191  20.2919148  59.1413258 101.7985276
  20.1564823  59.9864794 102.2270124  20.8328961  59.3432536 101.0351210
  13.7448546  56.6588696 102.3713201  14.2573066  57.4531946 102.5218766
  14.3971259  55.9614987 102.3046802  15.5543430  59.7754452 104.4535954
  15.7310059  60.6972417 104.2656938  16.3500264  59.4612872 104.8830334
  23.6061895  52.6552431  98.8356604  23.0908518  53.4257036  99.0744992
  23.3339203  51.9817567  99.4589666  28.5796169  55.4084786 100.7709778
  27.8025612  55.0695945 100.3264940  29.2587650  55.4137409 100.0964743
  23.3948198  50.5279523 100.6616386  23.0898333  50.8425672 101.5126529
  24.3478640  50.6060943 100.7043719  21.8394630  56.6869747 102.3109340
  21.3115991  55.9522506 101.9982577  21.3382132  57.4644423 102.0649308
  26.8187476  54.8818767 107.4276386  26.1611150  55.5718028 107.5156515
  27.6227875  55.2715199 107.7710372  25.6292934  53.2363140 105.4780328
  26.1424816  53.8693132 105.9802037  26.2794158  52.6364335 105.1123688
  16.8982944  49.3793874  98.6911836  16.0620257  49.7168560  99.0121111
  16.7587714  49.2442854  97.7538973  19.9847230  54.5049957  95.3144313
  19.0774292  54.2739210  95.5135462  20.4818262  53.7087576  95.5018294
  22.8915309  63.2147464  98.2340999  22.2177007  63.5179161  98.8425957
  23.2781131  64.0176544  97.8846456  22.8908813  52.1104011 102.8541348
  23.6380632  52.6225408 102.5448470  23.1600403  51.7888064 103.7145742
  21.1635463  54.6062552  99.8368303  20.2546683  54.3221585  99.9340772
  21.1930547  55.0261630  98.9771610  26.3954731  58.2169141 103.6059470
  25.9417058  57.3760051 103.6624661  25.7648697  58.8530540 103.9434250
  24.8387670  60.0545638 104.5409288  25.1310644  60.6150695 103.8221654
  25.3486291  60.3474199 105.2962448  20.8611551  56.1471295  97.1756381
  20.4230981  55.4307154  96.7162019  21.6021992  56.3747410  96.6141473
  19.8021295  60.8325989 105.6302742  19.7597474  61.0586835 104.7011274
  20.7183994  60.5989364 105.7788543  28.9784666  54.4228492 103.2332700
  28.8402564  54.6130088 102.3053889  28.6220885  55.1847875 103.6900751
  29.0054045  56.4905019 108.2443971  29.4390552  56.3980309 109.0927025
  29.7185626  56.4662520 107.6063987  17.9187096  57.7089018 105.4264704
  18.7127694  57.2139338 105.2247279  17.2078788  57.1806881 105.0632410
  21.0906524  63.3827136 100.4488078  21.2658280  62.9115180 101.2633701
  20.4039312  64.0092903 100.6769339  22.0463587  57.6599643 106.4951379
  21.7113420  57.6200413 107.3909029  21.5467533  56.9944359 106.0221789
  24.9822779  55.0055677  96.7688439  24.3651949  54.2802505  96.6721492
  24.5139267  55.7665037  96.4255513  16.7721325  49.2241101  95.8909743
  15.8950791  49.1029902  95.5271990  17.2479078  48.4327180  95.6388632
  19.9585251  61.5767392 103.1372264  19.1752773  62.1189072 103.2310488
  20.6577996  62.0941371 103.5366505  31.1211658  53.0902387 107.4224761
  31.1101534  53.9727102 107.0518694  30.2529038  52.7373937 107.2279298
  24.3511681  56.1433708 103.3544892  23.4167960  56.2635171 103.1849597
  24.5288350  55.2406175 103.0904902  27.7384233  51.9851028 103.8894927
  28.2044685  52.8179019 103.8155229  28.1891733  51.5196009 104.5940185
  25.8060464  58.3294849 100.8881079  26.0820308  58.2151444 101.7974953
  24.9364963  57.9312334 100.8493252  22.4414528  62.5781200 104.5313892
  22.6236922  61.7602856 104.9941645  23.2647514  62.7948892 104.0938782
  22.7756693  61.5049385 101.7928941  23.3044460  60.9941839 101.1799103
  23.0384913  61.1891915 102.6574474  23.4086097  62.5390221 108.1373057
  23.2837237  61.7379960 107.6284003  24.0665188  63.0336414 107.6487027
  25.4721006  60.3399241 109.7652607  24.5251341  60.2204592 109.6930934
  25.8203779  59.4521739 109.8478869  22.4767439  60.1351957 105.9656959
  22.3292401  59.2068664 106.1464530  23.3020932  60.1572048 105.4814035
  26.0801561  60.9580516 107.0521832  27.0048108  60.7523377 106.9146283
  25.9116864  60.7096917 107.9611174  18.3297830  47.2844646 100.0230744
  19.0506193  47.6625898  99.5194461  17.7063134  48.0033522 100.1265722
  22.4728953  47.9889795 100.9589077  22.6892568  48.8714432 100.6577905
  21.9923020  47.5976008 100.2294719  25.8696877  61.4766183 102.4083924
  26.0433754  60.9112606 101.6557776  26.3625768  62.2767078 102.2263414
  31.7236268  54.2402606 104.0274223  32.1667414  53.4909931 103.6293347
  30.8462778  54.2312742 103.6447955  26.8572049  60.7932948  99.5080822
  27.5522954  61.4139640  99.7268137  27.1995200  59.9428299  99.7833200
  28.7563473  58.2432653 101.0368153  29.2814797  58.5819926 100.3117473
  28.6685825  57.3079668 100.8531287  20.4404133  64.3104636 105.3963406
  20.0009124  63.8181015 106.0896263  21.1912250  63.7677604 105.1555481
  17.8878005  59.8542645 107.4685708  17.2658015  59.1913350 107.1687935
  18.5582872  59.8803777 106.7859355  17.4491512  58.4046569 100.9444168
  17.5979633  59.0882033 100.2910841  18.2557956  58.3851659 101.4593624
  31.2669133  55.7107844 106.4196671  32.1016024  56.1497648 106.5834231
  31.4028262  55.2346498 105.6004917  15.2044145  54.4311746 101.9505237
  14.9590187  53.5274076 102.1485447  15.3740060  54.4328897 101.0084715
  14.4739793  50.1640104  99.4491399  13.7809038  50.2384459  98.7931434
  14.2291545  49.4000448  99.9712915  20.9486918  60.8994699  98.4155916
  20.3760885  61.5184886  97.9626387  21.5219712  61.4494061  98.9495838
  24.1684178  61.1831849  99.5464498  25.1014851  61.1177411  99.7497373
  24.0807391  62.0188116  99.0879030  26.7972194  60.4997720  96.5068445
  26.7185826  60.1657583  97.4004203  27.6181861  60.9919488  96.5059918
  21.3333716  52.2355512  95.7571968  22.2792821  52.1061720  95.8260386
  20.9547961  51.4970174  96.2341396  35.3126935  54.4275466 108.8550801
  36.0430324  54.1660754 109.4158504  34.7033881  53.6904188 108.8952869
  19.5176634  50.1605488  95.6926853  18.6108089  49.8638601  95.7689567
  19.7952615  49.8635306  94.8261140  18.2875418  47.0192424  95.8338832
  19.1494582  47.3447322  96.0934650  18.4725762  46.2323919  95.3211898
  26.4408055  45.8920950 102.9774055  25.8606724  46.5505754 102.5952108
  26.1743987  45.0698295 102.5661473  25.2232933  48.0521040 102.0330404
  24.3358788  48.3370691 101.8150598  25.6386922  47.8914804 101.1857681
  24.3676146  57.8165715  96.1278424  25.0711996  58.0215718  96.7436079
  23.6438795  58.3842477  96.3927507  25.1973956  53.5675576 102.2480694
  25.1409158  54.0244128 101.4088326  25.7502299  52.8066261 102.0703537
  29.0078762  49.3565308 103.0730813  28.7515697  48.9561944 103.9039021
  28.3831630  50.0709102 102.9480953  33.3191100  52.0961381 105.5802105
  32.7590658  52.1654571 106.3533667  32.7134604  51.9202366 104.8601601
  26.2762844  58.2548244  98.1776884  27.1108447  57.8229443  97.9954359
  26.1147186  58.0830258  99.1053778  25.9308736  54.7580358  99.5433223
  25.8757540  54.5924629  98.6021667  25.3054791  55.4656390  99.6995413
  19.2404861  44.2588467  99.1218541  19.2283531  45.2030307  99.2786812
  20.1328283  44.0758612  98.8278003  34.9047119  68.7717895 108.2732061
  35.5425529  68.6524643 107.5695401  34.7867962  69.7198739 108.3320013
  31.7136825  68.7245323 108.2093585  31.3755336  68.6086388 107.3214120
  32.5826593  68.3236489 108.1894591  27.5723641  70.5780800 104.1990476
  27.0088506  70.4870737 103.4306764  27.4576036  69.7580704 104.6792969
  33.1523199  74.2451768  99.5104941  32.5011179  74.8305848  99.1238955
  33.9467562  74.7757963  99.5699979  27.0778826  71.3340905  99.9092075
  27.8509702  70.7869892  99.7704951  27.4304225  72.1985154 100.1206537
  29.8420076  70.0394136 109.7060334  30.4383648  69.8150158 108.9917297
  29.8995047  69.2978881 110.3085782  29.4145104  67.4933571  97.5410525
  29.6670625  66.9715092  96.7793988  28.4769663  67.3299716  97.6437209
  34.4588387  66.4969349 105.3485269  35.2451476  66.0788772 104.9975686
  34.7227091  67.4015441 105.5166917  34.6298464  71.9342200 100.0473925
  33.9944297  72.0076826 100.7594830  34.2995871  72.5235798  99.3693005
  39.8596814  66.4344582 106.2518247  40.5921986  65.8643799 106.4856077
  39.1036170  66.0466183 106.6924753  29.1341393  69.3961677  99.7434900
  29.0177651  68.7206580 100.4115985  29.2443653  68.9094051  98.9267053
  31.4772934  68.8571824 103.4481590  31.1131141  68.3302445 104.1594511
  32.3340050  68.4670293 103.2748075  37.3822235  60.1466157 110.7112856
  37.0505559  61.0161568 110.4874071  36.7867848  59.8302441 111.3906886
  31.1178421  63.8861724  98.4442938  31.2852823  64.7541960  98.8113409
  30.9275590  64.0489005  97.5204227  33.8753754  72.3478703 110.1108768
  33.5754477  73.2503741 110.0024576  33.5304814  72.0810886 110.9629921
  27.3266236  68.7992499 106.1445473  26.4016732  68.6668713 106.3523165
  27.5750649  69.5786719 106.6415415  37.2750898  64.8661243 107.7906206
  36.3667775  64.7976651 107.4964967  37.2238494  65.3433188 108.6188031
  31.0967642  66.3419381  99.4289605  30.9767267  66.7876432 100.2675085
  30.4020230  66.6904699  98.8703143  24.6875047  68.4425773 106.9789262
  24.8167428  68.6960252 107.8928674  24.0072498  69.0353481 106.6593917
  28.8574534  79.1123023 103.0779736  28.7798564  80.0630848 103.1568217
  28.2536178  78.7668895 103.7354662  39.1412544  63.0677681 109.5684080
  38.4986925  63.3610214 108.9223874  38.6367473  62.9530601 110.3737276
  36.7952708  66.8140854 100.2569939  37.7070564  67.0468241 100.0817636
  36.2862355  67.3977899  99.6945018  35.0793476  71.2365482 113.8931232
  35.4876832  70.7947893 113.1485864  34.3570737  70.6618110 114.1465424
  31.4324546  66.1738089 111.2664788  32.2785741  66.5977502 111.4099437
  31.3723183  65.5171713 111.9603352  35.4022290  71.7966673 107.6483520
  34.7731153  71.9612387 106.9459588  35.0147952  72.2108282 108.4194484
  39.2811522  72.7321111 105.0027884  38.5962560  73.1120012 104.4524917
  39.3655372  73.3416437 105.7359832  34.5823991  63.8342457 112.9245962
  34.3384923  64.5884518 112.3880238  34.8583922  64.2127805 113.7593209
  36.5362454  70.3781070 111.6023228  36.7479349  71.0212830 110.9257609
  36.4892202  69.5443386 111.1345158  34.1388683  62.9898890 108.5059800
  33.2773162  63.2880144 108.7976537  34.1651117  63.2069289 107.5740832
  30.9550252  71.5341081 104.9133605  31.4188598  71.8128784 104.1238228
  30.6907050  70.6324525 104.7306696  27.8474333  71.0812562 107.8513369
  28.4175690  71.5099831 107.2130853  28.4382445  70.7995147 108.5497554
  29.8919138  67.6564233 101.7223171  30.5943182  68.1085277 102.1897097
  29.5599767  67.0148052 102.3503064  23.6344472  65.9147786 107.0240304
  22.8443526  66.1705314 106.5480415  24.1255720  66.7296124 107.1292345
  37.6508282  73.2553025 109.7745585  38.4725725  72.8533212 109.4928267
  37.6470685  73.1521259 110.7261701  25.5859218  66.2792365 103.9823781
  24.7890381  66.3911059 104.5007277  25.3584810  66.6179017 103.1164671
  45.7414275  69.5991774 106.1230556  44.9877983  69.0299172 105.9674561
  45.8761816  69.5654438 107.0701191  31.1312903  74.4705176 101.7985276
  30.9958578  75.3156712 102.2270124  31.6722715  74.6724453 101.0351210
  24.5842300  71.9880614 102.3713201  25.0966821  72.7823864 102.5218766
  25.2365013  71.2906904 102.3046802  26.3937185  75.1046370 104.4535954
  26.5703813  76.0264335 104.2656938  27.1894018  74.7904789 104.8830334
  34.4805366  57.9935738 110.3284169  34.1369636  58.8837379 110.2523280
  34.8484329  57.8037395 109.4653754  22.5491217  70.3169268 103.1472771
  23.3866439  70.7266277 102.9306479  22.7269485  69.3768710 103.1172965
  34.4455649  67.9844349  98.8356604  33.9302273  68.7548953  99.0744992
  34.1732958  67.3109485  99.4589666  32.0302760  62.8294050 103.8941843
  31.1744357  62.4400900 103.7147481  32.4429712  62.9086010 103.0341628
  33.5601907  60.3640393 108.2933403  33.0566702  60.3270528 107.4801208
  33.8532514  61.2733136 108.3530059  29.8044793  60.4479123 107.2999584
  30.6697789  60.2521931 106.9405474  29.8722302  60.2189474 108.2268941
  39.4189923  70.7376703 100.7709778  38.6419366  70.3987863 100.3264940
  40.0981404  70.7429327 100.0964743  34.2341952  65.8571441 100.6616386
  33.9292088  66.1717590 101.5126529  35.1872394  65.9352861 100.7043719
  32.6788384  72.0161664 102.3109340  32.1509746  71.2814424 101.9982577
  32.1775887  72.7936341 102.0649308  37.6581230  70.2110685 107.4276386
  37.0004905  70.9009946 107.5156515  38.4621629  70.6007117 107.7710372
  27.4107112  62.6781331 104.6715951  27.9850864  62.4556512 103.9389144
  27.9978094  62.7470025 105.4244552  36.4686689  68.5655057 105.4780328
  36.9818571  69.1985049 105.9802037  37.1187913  67.9656253 105.1123688
  27.7376699  64.7085792  98.6911836  26.9014011  65.0460478  99.0121111
  27.5981469  64.5734771  97.7538973  29.7129779  59.5522579 103.3991021
  29.0594192  59.2371597 102.7747635  29.6710254  58.9298320 104.1250843
  30.8240984  69.8341875  95.3144313  29.9168046  69.6031128  95.5135462
  31.3212016  69.0379494  95.5018294  33.7309063  78.5439382  98.2340999
  33.0570762  78.8471078  98.8425957  34.1174885  79.3468462  97.8846456
  32.9467520  66.0404513 107.7238668  32.0290081  66.2619460 107.5660356
  33.3627663  66.1150823 106.8650375  33.7302568  67.4395929 102.8541348
  34.4774387  67.9517326 102.5448470  33.9994157  67.1179981 103.7145742
  32.0029218  69.9354469  99.8368303  31.0940437  69.6513502  99.9340772
  32.0324302  70.3553548  98.9771610  37.2348485  73.5461059 103.6059470
  36.7810812  72.7051969 103.6624661  36.6042452  74.1822457 103.9434250
  36.1781405  64.4753045 104.8360138  35.4404162  63.9630431 105.1670380
  36.4308178  64.0353427 104.0243415  35.6781424  75.3837556 104.5409288
  35.9704399  75.9442613 103.8221654  36.1880045  75.6766117 105.2962448
  36.2793032  57.2529297 105.4301907  36.5851909  56.3926660 105.1427822
  37.0045637  57.8446917 105.2300901  22.5717388  67.6559983 103.8183505
  22.3741788  67.0629344 103.0934571  22.0164052  67.3512194 104.5359444
  30.5514112  67.5483090 105.9378098  30.6062722  66.5956926 105.8620575
  29.7405314  67.7042529 106.4219396  31.7005306  71.4763213  97.1756381
  31.2624736  70.7599072  96.7162019  32.4415746  71.7039328  96.6141473
  28.4906472  66.1660150 103.6968477  27.6774337  66.4654320 104.1033669
  28.9865466  65.7715838 104.4142959  30.6415050  76.1617907 105.6302742
  30.5991228  76.3878753 104.7011274  31.5577748  75.9281281 105.7788543
  34.0880683  66.6301974 112.5283371  34.4430071  66.8573447 113.3877837
  34.7352815  66.9620351 111.9060626  39.8178420  69.7520410 103.2332700
  39.6796319  69.9422006 102.3053889  39.4614639  70.5139793 103.6900751
  27.9820546  63.7378505 109.3129712  28.6219926  63.5967264 108.6152675
  27.1498077  63.4513019 108.9368314  39.8447800  71.8196937 108.2443971
  40.2784307  71.7272226 109.0927025  40.5579381  71.7954438 107.6063987
  28.7580850  73.0380936 105.4264704  29.5521449  72.5431256 105.2247279
  28.0472543  72.5098799 105.0632410  33.5775695  75.4199031 109.7777072
  33.6312717  75.9889968 110.5454788  32.7090476  75.5900916 109.4131109
  25.0663614  67.1824017 101.5024457  24.1361202  67.1208473 101.7194419
  25.1621086  66.6599970 100.7061098  24.9849163  63.7078830 104.0902699
  25.2455980  64.6224163 103.9811859  25.8066335  63.2403273 104.2399311
  26.4574088  65.1216587 111.2601523  27.1297142  64.9133950 110.6114172
  25.6303875  64.9238673 110.8206755  40.7063350  71.8620638 110.7776857
  40.8999240  72.7666448 111.0236132  40.6063968  71.4028057 111.6115442
  32.3599660  61.7478528 113.2767184  31.7127575  62.4468478 113.1831660
  33.1300676  62.1814672 113.6443432  32.5363795  69.5859293 111.3364004
  33.4655855  69.7370453 111.1632971  32.1154825  69.6743314 110.4812650
  31.3352126  73.6109958 109.1062541  31.1963212  73.2428742 109.9788480
  30.5466723  74.1257597 108.9346499  31.9300278  78.7119054 100.4488078
  32.1052034  78.2407097 101.2633701  31.2433066  79.3384820 100.6769339
  32.8857342  72.9891560 106.4951379  32.5507174  72.9492330 107.3909029
  32.3861287  72.3236276 106.0221789  35.8216533  70.3347595  96.7688439
  35.2045704  69.6094423  96.6721492  35.3533022  71.0956955  96.4255513
  27.6115079  64.5533019  95.8909743  26.7344545  64.4321820  95.5271990
  28.0872832  63.7619097  95.6388632  37.4788072  73.0086087 112.6608199
  36.5914851  72.6712009 112.7834598  38.0486623  72.2769118 112.8976964
  30.7979005  76.9059309 103.1372264  30.0146527  77.4480990 103.2310488
  31.4971750  77.4233289 103.5366505  34.1075655  62.7153939 105.7806469
  34.6044355  61.9623901 105.4607539  33.3362637  62.7518255 105.2149678
  41.9605413  68.4194304 107.4224761  41.9495289  69.3019020 107.0518694
  41.0922792  68.0665855 107.2279298  35.1905436  71.4725626 103.3544892
  34.2561715  71.5927088 103.1849597  35.3682104  70.5698093 103.0904902
  30.6910624  64.8571322 105.5078154  30.3208412  64.3042362 106.1959059
  31.1869716  64.2529455 104.9553154  38.5777987  67.3142945 103.8894927
  39.0438439  68.1470937 103.8155229  39.0285488  66.8487927 104.5940185
  36.6454218  73.6586767 100.8881079  36.9214062  73.5443361 101.7974953
  35.7758717  73.2604251 100.8493252  36.5494650  59.6823532 107.9285828
  35.6357730  59.9127759 108.0968035  36.9787752  59.7661976 108.7799860
  36.3201109  67.8713424 110.4285722  35.6672559  68.1189332 109.7738175
  36.6981488  67.0577562 110.0948199  33.2808282  77.9073117 104.5313892
  33.4630677  77.0894773 104.9941645  34.1041268  78.1240810 104.0938782
  33.6150448  76.8341303 101.7928941  34.1438214  76.3233757 101.1799103
  33.8778667  76.5183833 102.6574474  26.0875958  62.2675313 111.7531260
  26.1517284  63.1290143 111.3408657  26.0243078  61.6549314 111.0203618
  22.3393773  66.1474874 101.3322649  22.6347214  65.2385553 101.2789702
  21.4381809  66.1262614 101.0103651  34.2479852  77.8682138 108.1373057
  34.1230991  77.0671878 107.6284003  34.9058943  78.3628332 107.6487027
  25.8688020  64.2230871 107.3150197  25.1474606  64.8366839 107.1757671
  26.6581276  64.7588636 107.2366843  36.3114760  75.6691158 109.7652607
  35.3645096  75.5496510 109.6930934  36.6597533  74.7813656 109.8478869
  24.0681615  63.8288972 101.4561974  23.7394321  62.9486351 101.2737080
  24.4220985  63.7736641 102.3438363  33.3161193  75.4643875 105.9656959
  33.1686156  74.5360582 106.1464530  34.1414687  75.4863965 105.4814035
  27.1823438  64.1161942 101.8237452  27.5219510  64.6447863 101.1016060
  27.6295558  64.4542348 102.5996018  36.9195315  76.2872433 107.0521832
  37.8441863  76.0815295 106.9146283  36.7510619  76.0388834 107.9611174
  29.8766879  62.4998992 111.2740520  29.5363699  61.7006805 111.6761200
  29.1705885  62.8000703 110.7017353  30.5283350  59.5848305 109.7267843
  31.3509420  59.1108783 109.6046733  30.7721414  60.3638789 110.2266529
  29.1691585  62.6136563 100.0230744  29.8899947  62.9917816  99.5194461
  28.5456889  63.3325440 100.1265722  33.3122708  63.3181712 100.9589077
  33.5286322  64.2006350 100.6577905  32.8316775  62.9267926 100.2294719
  28.0521929  66.2767425 107.5359821  27.9066510  66.5907729 108.4284103
  27.5747133  66.8952326 106.9830720  29.9118312  63.2669973 107.5840711
  29.8979881  62.3711067 107.2473009  30.6290740  63.2740637 108.2178997
  31.7644443  63.7007314 109.6293838  31.5062221  64.6224384 109.6278169
  31.2329483  63.3037748 110.3194302  36.7090631  76.8058101 102.4083924
  36.8827509  76.2404523 101.6557776  37.2019523  77.6058996 102.2263414
  29.3155208  62.1484354 102.8528281  29.4371119  61.2201000 103.0519169
  29.0257250  62.1623040 101.9406596  32.1846398  59.8339264 105.9895001
  32.2068095  59.8978597 105.0346980  32.6014457  58.9943773 106.1835507
  42.5630023  69.5694524 104.0274223  43.0061169  68.8201849 103.6293347
  41.6856533  69.5604660 103.6447955  37.6965804  76.1224865  99.5080822
  38.3916709  76.7431558  99.7268137  38.0388954  75.2720216  99.7833200
  39.5957227  73.5724571 101.0368153  40.1208551  73.9111843 100.3117473
  39.5079580  72.6371586 100.8531287  31.2797888  79.6396554 105.3963406
  30.8402878  79.1472933 106.0896263  32.0306005  79.0969522 105.1555481
  28.7271760  75.1834563 107.4685708  28.1051769  74.5205268 107.1687935
  29.3976627  75.2095695 106.7859355  39.4049008  71.0549941 113.6552079
  39.4547013  70.8899948 114.5967602  39.2962932  70.1877200 113.2649960
  28.2885267  73.7338486 100.9444168  28.4373387  74.4173951 100.2910841
  29.0951710  73.7143576 101.4593624  36.6952771  67.0380869 114.9711386
  37.5962633  66.8987334 114.6795384  36.7700745  67.2035324 115.9109563
  31.0295576  64.4147724 113.8164572  30.1598885  64.7081290 113.5447161
  31.2655056  64.9988169 114.5371836  42.1062887  71.0399762 106.4196671
  42.9409779  71.4789566 106.5834231  42.2422016  70.5638415 105.6004917
  39.1554393  68.5979497 112.3674159  39.6308515  68.7907143 111.5593010
  38.2319959  68.6538683 112.1217542  26.0437900  69.7603664 101.9505237
  25.7983942  68.8565994 102.1485447  26.2133814  69.7620815 101.0084715
  33.7334610  60.6327340 111.3329993  34.2516554  61.3688367 111.0076481
  33.3789743  60.9391334 112.1676752  25.3133547  65.4932022  99.4491399
  24.6202792  65.5676377  98.7931434  25.0685299  64.7292365  99.9712915
  33.9847204  57.0527623 106.8530889  34.2648958  56.3850812 107.4791316
  34.7697811  57.2456719 106.3405553  31.7880672  76.2286617  98.4155916
  31.2154639  76.8476804  97.9626387  32.3613466  76.7785979  98.9495838
  37.8556062  65.4745257 110.6002464  38.8073485  65.5743355 110.6214688
  37.6859513  64.6823526 111.1100549  35.8770442  62.5600840 110.7861865
  35.2820374  62.8405853 110.0908354  35.5920138  63.0494741 111.5578606
  35.0077932  76.5123767  99.5464498  35.9408605  76.4469329  99.7497373
  34.9201145  77.3480034  99.0879030  37.6365949  75.8289637  96.5068445
  37.5579580  75.4949501  97.4004203  38.4575616  76.3211405  96.5059918
  40.3344140  68.6951377 109.7144764  40.3020460  67.7567377 109.9004448
  40.9444764  68.7735413 108.9810589  32.1727471  67.5647430  95.7571968
  33.1186576  67.4353638  95.8260386  31.7941716  66.8262092  96.2341396
  40.4838629  65.4862420 109.7603047  39.9677677  64.7020877 109.5732976
  41.3678577  65.1581137 109.9249567  38.1449355  59.2303436 105.7198860
  37.9474177  58.9218524 106.6042192  38.7549061  59.9565075 105.8496790
  46.1520690  69.7567383 108.8550801  46.8824078  69.4952672 109.4158504
  45.5427635  69.0196105 108.8952869  44.2335987  67.8975246 109.4525252
  43.5069151  67.7631211 108.8441744  43.8183274  68.2052075 110.2581970
  30.3570388  65.4897406  95.6926853  29.4501843  65.1930519  95.7689567
  30.6346369  65.1927224  94.8261140  31.9732454  60.0334296 101.8471095
  31.1633182  59.6881381 102.2226341  32.6616871  59.7241839 102.4358706
  33.9023002  59.1112343 103.4695391  34.4554041  59.5307796 104.1285414
  34.1393088  58.1848091 103.5118347  29.1269173  62.3484341  95.8338832
  29.9888337  62.6739240  96.0934650  29.3119517  61.5615837  95.3211898
  37.2801809  61.2212868 102.9774055  36.7000478  61.8797672 102.5952108
  37.0137742  60.3990212 102.5661473  35.7305376  60.6217925 105.1795376
  36.2305154  60.7334460 104.3709695  36.3740983  60.3178978 105.8196184
  36.0626687  63.3812958 102.0330404  35.1752542  63.6662609 101.8150598
  36.4780676  63.2206721 101.1857681  39.4141223  63.4059479 105.7484743
  40.1901613  63.8955932 106.0209360  38.6889357  63.8317533 106.2056612
  41.8513782  64.1187098 106.8058684  42.4458273  63.8782834 106.0951992
  41.9240366  63.3994229 107.4332220  35.2069901  73.1457633  96.1278424
  35.9105751  73.3507635  96.7436079  34.4832549  73.7134395  96.3927507
  36.0367711  68.8967494 102.2480694  35.9802912  69.3536045 101.4088326
  36.5896053  68.1358179 102.0703537  39.8472517  64.6857226 103.0730813
  39.5909451  64.2853862 103.9039021  39.2225385  65.4001020 102.9480953
  44.1584855  67.4253299 105.5802105  43.5984413  67.4946488 106.3533667
  43.5528358  67.2494284 104.8601601  37.1156598  73.5840162  98.1776884
  37.9502202  73.1521360  97.9954359  36.9540941  73.4122176  99.1053778
  36.7702490  70.0872275  99.5433223  36.7151294  69.9216547  98.6021667
  36.1448545  70.7948308  99.6995413  30.0798616  59.5880384  99.1218541
  30.0677286  60.5322224  99.2786812  30.9722038  59.4050530  98.8278003
  33.8950735  56.1823161 103.3764478  33.1283131  55.6281648 103.5221161
  34.3061440  56.2545030 104.2378630  38.4117395  85.9072718 104.1990476
  37.8482260  85.8162655 103.4306764  38.2969790  85.0872622 104.6792969
  43.9916954  89.5743685  99.5104941  43.3404934  90.1597766  99.1238955
  44.7861317  90.1049880  99.5699979  37.9172581  86.6632822  99.9092075
  38.6903457  86.1161810  99.7704951  38.2697980  87.5277072 100.1206537
  40.2538859  82.8225489  97.5410525  40.5064379  82.3007010  96.7793988
  39.3163418  82.6591634  97.6437209  45.4692219  87.2634117 100.0473925
  44.8338052  87.3368744 100.7594830  45.1389625  87.8527716  99.3693005
  39.9735148  84.7253595  99.7434900  39.8571406  84.0498498 100.4115985
  40.0837407  84.2385968  98.9267053  42.3166688  84.1863742 103.4481590
  41.9524896  83.6594363 104.1594511  43.1733804  83.7962211 103.2748075
  41.9572175  79.2153641  98.4442938  42.1246578  80.0833878  98.8113409
  41.7669345  79.3780923  97.5204227  38.1659990  84.1284417 106.1445473
  37.2410487  83.9960631 106.3523165  38.4144403  84.9078636 106.6415415
  41.9361396  81.6711299  99.4289605  41.8161022  82.1168350 100.2675085
  41.2413985  82.0196616  98.8703143  35.5268801  83.7717691 106.9789262
  35.6561182  84.0252170 107.8928674  34.8466252  84.3645399 106.6593917
  47.6346462  82.1432772 100.2569939  48.5464319  82.3760159 100.0817636
  47.1256110  82.7269816  99.6945018  40.7312893  82.9856151 101.7223171
  41.4336936  83.4377195 102.1897097  40.3993521  82.3439970 102.3503064
  34.4738227  81.2439704 107.0240304  33.6837281  81.4997232 106.5480415
  34.9649474  82.0588041 107.1292345  36.4252972  81.6084283 103.9823781
  35.6284135  81.7202977 104.5007277  36.1978564  81.9470935 103.1164671
  41.9706657  89.7997094 101.7985276  41.8352332  90.6448629 102.2270124
  42.5116470  90.0016371 101.0351210  35.4236055  87.3172532 102.3713201
  35.9360575  88.1115782 102.5218766  36.0758768  86.6198822 102.3046802
  45.3199121  73.3227655 110.3284169  44.9763390  74.2129297 110.2523280
  45.6878084  73.1329313 109.4653754  33.3884972  85.6461186 103.1472771
  34.2260194  86.0558194 102.9306479  33.5663239  84.7060628 103.1172965
  45.2849404  83.3136266  98.8356604  44.7696027  84.0840871  99.0744992
  45.0126712  82.6401403  99.4589666  42.8696515  78.1585967 103.8941843
  42.0138111  77.7692818 103.7147481  43.2823466  78.2377928 103.0341628
  44.3995661  75.6932311 108.2933403  43.8960457  75.6562446 107.4801208
  44.6926268  76.6025053 108.3530059  40.6438547  75.7771040 107.2999584
  41.5091544  75.5813849 106.9405474  40.7116056  75.5481392 108.2268941
  50.2583678  86.0668621 100.7709778  49.4813121  85.7279781 100.3264940
  50.9375159  86.0721244 100.0964743  45.0735707  81.1863359 100.6616386
  44.7685842  81.5009508 101.5126529  46.0266149  81.2644778 100.7043719
  43.5182139  87.3453582 102.3109340  42.9903500  86.6106341 101.9982577
  43.0169641  88.1228258 102.0649308  38.2500866  78.0073248 104.6715951
  38.8244618  77.7848430 103.9389144  38.8371849  78.0761943 105.4244552
  38.5770453  80.0377709  98.6911836  37.7407766  80.3752396  99.0121111
  38.4375223  79.9026689  97.7538973  40.5523534  74.8814497 103.3991021
  39.8987946  74.5663514 102.7747635  40.5104008  74.2590238 104.1250843
  41.6634739  85.1633792  95.3144313  40.7561801  84.9323046  95.5135462
  42.1605771  84.3671411  95.5018294  44.5702818  93.8731299  98.2340999
  43.8964516  94.1762996  98.8425957  44.9568640  94.6760380  97.8846456
  44.5696322  82.7687846 102.8541348  45.3168141  83.2809244 102.5448470
  44.8387912  82.4471899 103.7145742  42.8422972  85.2646387  99.8368303
  41.9334192  84.9805420  99.9340772  42.8718056  85.6845466  98.9771610
  47.0175159  79.8044963 104.8360138  46.2797916  79.2922349 105.1670380
  47.2701933  79.3645344 104.0243415  47.1186787  72.5821215 105.4301907
  47.4245663  71.7218578 105.1427822  47.8439391  73.1738835 105.2300901
  33.4111143  82.9851901 103.8183505  33.2135542  82.3921262 103.0934571
  32.8557807  82.6804111 104.5359444  41.3907866  82.8775008 105.9378098
  41.4456476  81.9248844 105.8620575  40.5799068  83.0334447 106.4219396
  42.5399060  86.8055131  97.1756381  42.1018490  86.0890990  96.7162019
  43.2809501  87.0331246  96.6141473  39.3300226  81.4952067 103.6968477
  38.5168092  81.7946238 104.1033669  39.8259220  81.1007756 104.4142959
  38.8214301  79.0670423 109.3129712  39.4613680  78.9259182 108.6152675
  37.9891832  78.7804936 108.9368314  35.9057368  82.5115935 101.5024457
  34.9754956  82.4500391 101.7194419  36.0014840  81.9891888 100.7061098
  35.8242917  79.0370748 104.0902699  36.0849735  79.9516081 103.9811859
  36.6460090  78.5695190 104.2399311  46.6610288  85.6639512  96.7688439
  46.0439458  84.9386341  96.6721492  46.1926776  86.4248873  96.4255513
  38.4508834  79.8824937  95.8909743  37.5738300  79.7613737  95.5271990
  38.9266587  79.0911015  95.6388632  44.9469410  78.0445856 105.7806469
  45.4438109  77.2915819 105.4607539  44.1756391  78.0810173 105.2149678
  41.5304378  80.1863239 105.5078154  41.1602166  79.6334280 106.1959059
  42.0263471  79.5821373 104.9553154  47.3888405  75.0115450 107.9285828
  46.4751484  75.2419677 108.0968035  47.8181506  75.0953894 108.7799860
  36.9269712  77.5967230 111.7531260  36.9911039  78.4582061 111.3408657
  36.8636832  76.9841232 111.0203618  33.1787527  81.4766792 101.3322649
  33.4740969  80.5677470 101.2789702  32.2775563  81.4554531 101.0103651
  36.7081774  79.5522788 107.3150197  35.9868360  80.1658756 107.1757671
  37.4975030  80.0880553 107.2366843  34.9075369  79.1580890 101.4561974
  34.5788075  78.2778268 101.2737080  35.2614740  79.1028558 102.3438363
  38.0217192  79.4453859 101.8237452  38.3613265  79.9739781 101.1016060
  38.4689313  79.7834265 102.5996018  41.3677105  74.9140222 109.7267843
  42.1903174  74.4400701 109.6046733  41.6115168  75.6930706 110.2266529
  40.0085339  77.9428481 100.0230744  40.7293702  78.3209734  99.5194461
  39.3850643  78.6617358 100.1265722  44.1516462  78.6473630 100.9589077
  44.3680077  79.5298268 100.6577905  43.6710529  78.2559843 100.2294719
  38.8915684  81.6059343 107.5359821  38.7460264  81.9199646 108.4284103
  38.4140887  82.2244243 106.9830720  40.7512066  78.5961891 107.5840711
  40.7373635  77.7002984 107.2473009  41.4684495  78.6032555 108.2178997
  40.1548962  77.4776271 102.8528281  40.2764874  76.5492918 103.0519169
  39.8651005  77.4914957 101.9406596  43.0240153  75.1631182 105.9895001
  43.0461850  75.2270515 105.0346980  43.4408212  74.3235690 106.1835507
  39.1279021  89.0630404 100.9444168  39.2767142  89.7465868 100.2910841
  39.9345465  89.0435494 101.4593624  36.8831654  85.0895582 101.9505237
  36.6377696  84.1857912 102.1485447  37.0527569  85.0912732 101.0084715
  36.1527302  80.8223939  99.4491399  35.4596547  80.8968294  98.7931434
  35.9079054  80.0584283  99.9712915  44.8240958  72.3819541 106.8530889
  45.1042712  71.7142730 107.4791316  45.6091565  72.5748636 106.3405553
  42.6274427  91.5578535  98.4155916  42.0548394  92.1768722  97.9626387
  43.2007221  92.1077896  98.9495838  48.4759703  91.1581555  96.5068445
  48.3973335  90.8241419  97.4004203  49.2969370  91.6503323  96.5059918
  43.0121225  82.8939347  95.7571968  43.9580330  82.7645555  95.8260386
  42.6335470  82.1554009  96.2341396  48.9843110  74.5595353 105.7198860
  48.7867931  74.2510442 106.6042192  49.5942816  75.2856992 105.8496790
  41.1964143  80.8189324  95.6926853  40.2895598  80.5222436  95.7689567
  41.4740124  80.5219142  94.8261140  42.8126208  75.3626213 101.8471095
  42.0026937  75.0173298 102.2226341  43.5010625  75.0533757 102.4358706
  44.7416757  74.4404260 103.4695391  45.2947795  74.8599714 104.1285414
  44.9786843  73.5140008 103.5118347  39.9662927  77.6776259  95.8338832
  40.8282091  78.0031157  96.0934650  40.1513271  76.8907755  95.3211898
  48.1195564  76.5504785 102.9774055  47.5394233  77.2089589 102.5952108
  47.8531496  75.7282130 102.5661473  46.5699130  75.9509843 105.1795376
  47.0698908  76.0626378 104.3709695  47.2134738  75.6470896 105.8196184
  46.9020442  78.7104876 102.0330404  46.0146297  78.9954526 101.8150598
  47.3174431  78.5498639 101.1857681  46.0463655  88.4749550  96.1278424
  46.7499505  88.6799553  96.7436079  45.3226304  89.0426312  96.3927507
  46.8761465  84.2259412 102.2480694  46.8196667  84.6827963 101.4088326
  47.4289808  83.4650096 102.0703537  50.6866271  80.0149144 103.0730813
  50.4303206  79.6145779 103.9039021  50.0619139  80.7292937 102.9480953
  47.9550353  88.9132080  98.1776884  48.7895956  88.4813278  97.9954359
  47.7934695  88.7414093  99.1053778  47.6096245  85.4164193  99.5433223
  47.5545049  85.2508464  98.6021667  46.9842300  86.1240226  99.6995413
  40.9192370  74.9172302  99.1218541  40.9071040  75.8614142  99.2786812
  41.8115792  74.7342447  98.8278003  44.7344490  71.5115079 103.3764478
  43.9676885  70.9573565 103.5221161  45.1455195  71.5836947 104.2378630
  49.2902588  95.2116854  95.8909743  48.4132054  95.0905655  95.5271990
  49.7660341  94.4202933  95.6388632  50.8056682  93.0068177  95.8338832
  51.6675846  93.3323075  96.0934650  50.9907026  92.2199672  95.3211898
  15.9578441  22.1767925  83.2313752  15.8792073  21.8427788  84.1249510
  16.7788108  22.6689692  83.2305224  22.3129446  35.9221973  86.2350248
  21.6617426  36.5076053  85.8484261  23.1073809  36.4528167  86.2945285
  16.2385073  33.0111110  86.6337382  17.0115949  32.4640097  86.4950258
  16.5910472  33.8755359  86.8451843  18.5751351  29.1703776  84.2655832
  18.8276872  28.6485297  83.5039295  17.6375910  29.0069921  84.3682516
  23.7904711  33.6112404  86.7719232  23.1550544  33.6847031  87.4840137
  23.4602118  34.2006003  86.0938311  29.0203061  28.1114787  92.9763554
  29.7528233  27.5414004  93.2101383  28.2642417  27.7236388  93.4170059
  18.2947640  31.0731882  86.4680207  18.1783898  30.3976785  87.1361291
  18.4049900  30.5864256  85.6512360  20.6379181  30.5342029  90.1726896
  20.2737388  30.0072650  90.8839818  21.4946297  30.1440498  89.9993382
  20.2784668  25.5631929  85.1688245  20.4459070  26.4312165  85.5358716
  20.0881837  25.7259210  84.2449534  20.2573889  28.0189586  86.1534912
  20.1373514  28.4646637  86.9920392  19.5626477  28.3674904  85.5948450
  18.0180781  40.7893228  89.8025043  17.9404810  41.7401053  89.8813523
  17.4142424  40.4439100  90.4599969  25.9558955  28.4911059  86.9815246
  26.8676811  28.7238446  86.8062943  25.4468602  29.0748103  86.4190324
  24.5628537  33.4736878  94.3728827  23.9337400  33.6382592  93.6704895
  24.1754199  33.8878487  95.1439791  28.4417769  34.4091316  91.7273191
  27.7568807  34.7890217  91.1770224  28.5261618  35.0186642  92.4605139
  20.1156499  33.2111286  91.6378912  20.5794844  33.4898989  90.8483535
  19.8513297  32.3094730  91.4552003  19.0525385  29.3334438  88.4468477
  19.7549428  29.7855482  88.9142404  18.7206013  28.6918257  89.0748370
  34.9020522  31.2761978  92.8475863  34.1484230  30.7069377  92.6919868
  35.0368063  31.2424643  93.7946498  20.2919150  36.1475381  88.5230582
  20.1564824  36.9926916  88.9515430  20.8328962  36.3494658  87.7596516
  13.7448547  33.6650819  89.0958508  14.2573068  34.4594069  89.2464072
  14.3971260  32.9677109  89.0292109  15.5543432  36.7816575  91.1781261
  15.7310060  37.7034540  90.9902245  16.3500265  36.4674994  91.6075641
  23.6061896  29.6614554  85.5601911  23.0908519  30.4319158  85.7990298
  23.3339204  28.9879690  86.1834972  28.5796170  32.4146908  87.4955085
  27.8025613  32.0758068  87.0510247  29.2587651  32.4199532  86.8210050
  23.3948199  27.5341646  87.3861692  23.0898335  27.8487795  88.2371835
  24.3478641  27.6123066  87.4289025  21.8394631  33.6931869  89.0354646
  21.3115992  32.9584629  88.7227884  21.3382134  34.4706546  88.7894615
  26.8187477  31.8880890  94.1521693  26.1611151  32.5780151  94.2401821
  27.6227876  32.2777322  94.4955679  25.6292936  30.2425262  92.2025634
  26.1424817  30.8755254  92.7047344  26.2794160  29.6426458  91.8368994
  16.8982946  26.3855996  85.4157143  16.0620258  26.7230683  85.7366418
  16.7587715  26.2504976  84.4784280  19.9847231  31.5112079  82.0389619
  19.0774293  31.2801333  82.2380768  20.4818263  30.7149699  82.2263601
  22.8915310  40.2209587  84.9586305  22.2177009  40.5241283  85.5671263
  23.2781132  41.0238667  84.6091762  22.8908814  29.1166134  89.5786655
  23.6380633  29.6287531  89.2693777  23.1600404  28.7950186  90.4391049
  21.1635465  31.6124674  86.5613609  20.2546684  31.3283707  86.6586079
  21.1930548  32.0323753  85.7016916  26.3954732  35.2231264  90.3304777
  25.9417059  34.3822174  90.3869967  25.7648699  35.8592662  90.6679557
  24.8387671  37.0607760  91.2654595  25.1310646  37.6212818  90.5466961
  25.3486292  37.3536321  92.0207754  20.8611552  33.1533418  83.9001688
  20.4230982  32.4369277  83.4407325  21.6021993  33.3809533  83.3386779
  19.8021296  37.8388112  92.3548048  19.7597475  38.0648958  91.4256580
  20.7183995  37.6051486  92.5033849  28.9784667  31.4290615  89.9578006
  28.8402566  31.6192211  89.0299196  28.6220886  32.1909998  90.4146058
  29.0054047  33.4967142  94.9689278  29.4390553  33.4042431  95.8172332
  29.7185627  33.4724642  94.3309294  17.9187097  34.7151141  92.1510011
  18.7127696  34.2201461  91.9492586  17.2078790  34.1869004  91.7877717
  21.0906525  40.3889259  87.1733385  21.2658281  39.9177302  87.9879007
  20.4039313  41.0155025  87.4014645  22.0463588  34.6661765  93.2196686
  21.7113421  34.6262535  94.1154336  21.5467534  34.0006481  92.7467096
  24.9822780  32.0117800  83.4933745  24.3651951  31.2864628  83.3966798
  24.5139268  32.7727160  83.1500820  15.6567610  43.5378622  93.9473245
  15.8964209  44.1697146  94.6252263  14.8136807  43.1866662  94.2338604
  16.7721326  26.2303224  82.6155050  15.8950792  26.1092025  82.2517296
  17.2479079  25.4389302  82.3633938  20.1695472  39.3457744  96.3514749
  20.0965644  40.1512716  96.8634053  19.7272865  39.5449710  95.5262770
  19.9585252  38.5829514  89.8617570  19.1752774  39.1251194  89.9555795
  20.6577997  39.1003494  90.2611811  31.1211659  30.0964509  94.1470067
  31.1101536  30.9789225  93.7764000  30.2529039  29.7436060  93.9524604
  24.3511683  33.1495831  90.0790199  23.4167961  33.2697293  89.9094903
  24.5288351  32.2468298  89.8150209  27.7384234  28.9913150  90.6140233
  28.2044686  29.8241142  90.5400536  28.1891735  28.5258132  91.3185492
  25.8060465  35.3356972  87.6126385  26.0820309  35.2213566  88.5220259
  24.9364964  34.9374456  87.5738558  22.4414529  39.5843322  91.2559199
  22.6236924  38.7664978  91.7186951  23.2647515  39.8011015  90.8184089
  22.7756695  38.5111507  88.5174247  23.3044461  38.0003962  87.9044409
  23.0384914  38.1954038  89.3819780  16.1312443  39.5626624  91.2772023
  15.4622818  40.0472752  90.7936063  15.9925312  39.8095845  92.1915402
  20.2717711  41.5970368  97.8754682  20.8236019  41.7601989  98.6403767
  20.6123905  42.1874806  97.2034706  23.4086098  39.5452343  94.8618364
  23.2837238  38.7442083  94.3529309  24.0665190  40.0398537  94.3732334
  25.4721007  37.3461363  96.4897914  24.5251342  37.2266714  96.4176241
  25.8203780  36.4583861  96.5724175  22.4767440  37.1414080  92.6902266
  22.3292403  36.2130787  92.8709836  23.3020934  37.1634170  92.2059341
  26.0801562  37.9642638  93.7767139  27.0048109  37.7585500  93.6391590
  25.9116865  37.7159039  94.6856480  18.3297832  24.2906768  86.7476051
  19.0506194  24.6688021  86.2439768  17.7063136  25.0095645  86.8511029
  22.4728954  24.9951917  87.6834383  22.6892569  25.8776555  87.3823212
  21.9923022  24.6038131  86.9540025  25.8696878  38.4828306  89.1329230
  26.0433756  37.9174728  88.3803083  26.3625769  39.2829201  88.9508720
  31.7236269  31.2464729  90.7519530  32.1667415  30.4972054  90.3538653
  30.8462780  31.2374865  90.3693262  26.8572051  37.7995070  86.2326129
  27.5522955  38.4201763  86.4513443  27.1995201  36.9490421  86.5078506
  28.7563474  35.2494776  87.7613459  29.2814798  35.5882048  87.0362779
  28.6685826  34.3141791  87.5776594  20.4404135  41.3166759  92.1208713
  20.0009125  40.8243138  92.8141569  21.1912252  40.7739727  91.8800788
  17.8878007  36.8604768  94.1931014  17.2658016  36.1975473  93.8933242
  18.5582874  36.8865900  93.5104662  17.4491514  35.4108691  87.6689475
  17.5979634  36.0944156  87.0156148  18.2557957  35.3913781  88.1838931
  31.2669134  32.7169967  93.1441978  32.1016025  33.1559771  93.3079538
  31.4028263  32.2408620  92.3250223  15.2044147  31.4373869  88.6750544
  14.9590189  30.5336199  88.8730754  15.3740061  31.4391019  87.7330022
  14.4739794  27.1702227  86.1736705  13.7809039  27.2446582  85.5176741
  14.2291546  26.4062570  86.6958222  20.9486919  37.9056822  85.1401222
  20.3760886  38.5247009  84.6871694  21.5219713  38.4556183  85.6741144
  24.1684179  38.1893972  86.2709804  25.1014852  38.1239534  86.4742680
  24.0807392  39.0250239  85.8124337  26.7972196  37.5059842  83.2313752
  26.7185827  37.1719706  84.1249510  27.6181862  37.9981610  83.2305224
  21.3333718  29.2417635  82.4817275  22.2792822  29.1123843  82.5505693
  20.9547963  28.5032296  82.9586703  35.3126937  31.4337588  95.5796107
  36.0430325  31.1722877  96.1403811  34.7033882  30.6966310  95.6198175
  19.5176635  27.1667611  82.4172160  18.6108090  26.8700724  82.4934874
  19.7952616  26.8697429  81.5506446  18.2875419  24.0254546  82.5584139
  19.1494583  24.3509444  82.8179956  18.4725764  23.2386042  82.0457205
  26.4408056  22.8983073  89.7019362  25.8606725  23.5567877  89.3197415
  26.1743989  22.0760417  89.2906780  25.2232934  25.0583163  88.7575710
  24.3358789  25.3432814  88.5395905  25.6386923  24.8976926  87.9102987
  13.2317184  39.6390914  93.8447155  13.0971652  38.8791315  93.2785153
  12.8149247  40.3631814  93.3775944  24.3676147  34.8227838  82.8523730
  25.0711998  35.0277840  83.4681386  23.6438796  35.3904600  83.1172814
  25.1973958  30.5737699  88.9726001  25.1409159  31.0306250  88.1333633
  25.7502300  29.8128384  88.7948843  29.0078764  26.3627431  89.7976120
  28.7515698  25.9624066  90.6284328  28.3831632  27.0771225  89.6726259
  33.3191101  29.1023504  92.3047411  32.7590659  29.1716693  93.0778973
  32.7134605  28.9264489  91.5846908  16.3886310  40.5360231  94.0565598
  16.2718694  41.4805664  93.9544288  15.5678757  40.2333793  94.4451397
  26.2762845  35.2610367  84.9022190  27.1108449  34.8291565  84.7199665
  26.1147188  35.0892381  85.8299085  25.9308737  31.7642480  86.2678530
  25.8757541  31.5986752  85.3266974  25.3054792  32.4718513  86.4240719
  19.2404862  21.2650589  85.8463848  19.2283532  22.2092429  86.0032119
  20.1328284  21.0820735  85.5523309  19.1694426  39.9419480  93.9331605
  18.2190057  39.9421341  93.8195977  19.4726913  39.1952214  93.4167639
  34.9047120  45.7780018  94.9977367  35.5425530  45.6586765  94.2940707
  34.7867963  46.7260862  95.0565319  31.7136826  45.7307446  94.9338892
  31.3755338  45.6148511  94.0459427  32.5826594  45.3298611  94.9139898
  27.5723642  47.5842922  90.9235783  27.0088507  47.4932859  90.1552071
  27.4576037  46.7642827  91.4038275  32.1956609  46.8842298 100.8925097
  32.1845250  46.4895096 100.0205601  32.3577249  46.1508370 101.4858869
  25.1188074  49.0794114  93.7620003  25.9109366  48.7384939  93.3466303
  25.3584724  49.1889089  94.6822157  33.1523201  51.2513890  86.2350248
  32.5011180  51.8367971  85.8484261  33.9467563  51.7820085  86.2945285
  27.0778828  48.3403027  86.6337382  27.8509704  47.7932014  86.4950258
  27.4304227  49.2047277  86.8451843  28.9163870  49.6679410  99.8404281
  28.6253736  50.5725040  99.7250948  29.5520855  49.7095937 100.5548351
  29.8420077  47.0456258  96.4305641  30.4383649  46.8212281  95.7162604
  29.8995049  46.3041004  97.0331089  29.4145106  44.4995693  84.2655832
  29.6670626  43.9777215  83.5039295  28.4769665  44.3361839  84.3682516
  34.4588388  43.5031472  92.0730575  35.2451478  43.0850895  91.7220992
  34.7227093  44.4077564  92.2412224  34.6298466  48.9404322  86.7719232
  33.9944299  49.0138949  87.4840137  34.2995872  49.5297921  86.0938311
  39.8596816  43.4406705  92.9763554  40.5921987  42.8705922  93.2101383
  39.1036171  43.0528305  93.4170059  29.1341394  46.4023799  86.4680207
  29.0177652  45.7268703  87.1361291  29.2443654  45.9156173  85.6512360
  31.4772935  45.8633947  90.1726896  31.1131142  45.3364567  90.8839818
  32.3340051  45.4732416  89.9993382  37.3822236  37.1528279  97.4358162
  37.0505561  38.0223690  97.2119377  36.7867849  36.8364563  98.1152193
  31.1178422  40.8923846  85.1688245  31.2852825  41.7604083  85.5358716
  30.9275591  41.0551128  84.2449534  33.8753755  49.3540825  96.8354075
  33.5754478  50.2565864  96.7269882  33.5304815  49.0873008  97.6875228
  27.3266237  45.8054622  92.8690779  26.4016733  45.6730836  93.0768471
  27.5750650  46.5848841  93.3660722  37.2750899  41.8723365  94.5151512
  36.3667777  41.8038774  94.2210273  37.2238495  42.3495310  95.3433338
  31.0967643  43.3481504  86.1534912  30.9767268  43.7938554  86.9920392
  30.4020231  43.6966821  85.5948450  24.6875048  45.4487896  93.7034569
  24.8167429  45.7022374  94.6173980  24.0072499  46.0415604  93.3839224
  28.8574535  56.1185145  89.8025043  28.7798565  57.0692971  89.8813523
  28.2536179  55.7731018  90.4599969  31.3491765  43.2913011 102.4586410
  30.5725099  43.8506931 102.4489274  31.9882328  43.7769794 102.9801280
  39.1412546  40.0739804  96.2929386  38.4986926  40.3672337  95.6469181
  38.6367474  39.9592724  97.0982583  36.7952709  43.8202977  86.9815246
  37.7070565  44.0530364  86.8062943  36.2862356  44.4040021  86.4190324
  29.6038137  46.0998464 102.0204377  30.3452822  46.6383508 101.7439200
  28.8975123  46.7264753 102.1775928  35.0793477  48.2427605 100.6176538
  35.4876833  47.8010015  99.8731170  34.3570738  47.6680232 100.8710731
  31.4324547  43.1800211  97.9910095  32.2785742  43.6039625  98.1344744
  31.3723185  42.5233836  98.6848658  35.4022292  48.8028795  94.3728827
  34.7731154  48.9674509  93.6704895  35.0147954  49.2170405  95.1439791
  39.2811523  49.7383233  91.7273191  38.5962562  50.1182135  91.1770224
  39.3655373  50.3478560  92.4605139  34.5823992  40.8404580  99.6491269
  34.3384924  41.5946640  99.1125544  34.8583923  41.2189927 100.4838516
  36.5362455  47.3843192  98.3268534  36.7479350  48.0274952  97.6502915
  36.4892203  46.5505509  97.8590464  34.1388684  39.9961013  95.2305106
  33.2773163  40.2942266  95.5221844  34.1651119  40.2131412  94.2986139
  30.9550253  48.5403203  91.6378912  31.4188599  48.8190906  90.8483535
  30.6907052  47.6386648  91.4552003  27.8474334  48.0874685  94.5758675
  28.4175692  48.5161953  93.9376160  28.4382446  47.8057270  95.2742861
  29.8919139  44.6626356  88.4468477  30.5943183  45.1147399  88.9142404
  29.5599768  44.0210175  89.0748370  23.6344473  42.9209908  93.7485611
  22.8443527  43.1767437  93.2725721  24.1255721  43.7358246  93.8537651
  37.6508283  50.2615148  96.4990892  38.4725727  49.8595335  96.2173573
  37.6470686  50.1583382  97.4507007  25.5859219  43.2854488  90.7069088
  24.7890382  43.3973182  91.2252583  25.3584811  43.6241140  89.8409978
  31.4164886  49.8099191  98.6551602  31.4809319  50.2719598  99.4909774
  30.7075810  49.1796556  98.7833912  21.9182176  43.1740399  96.1800602
  22.1690215  44.0587409  96.4458178  22.4541725  42.9945000  95.4075693
  45.7414276  46.6053896  92.8475863  44.9877984  46.0361294  92.6919868
  45.8761817  46.5716561  93.7946498  31.1312904  51.4767298  88.5230582
  30.9958579  52.3218834  88.9515430  31.6722717  51.6786576  87.7596516
  24.5842302  48.9942736  89.0958508  25.0966822  49.7885987  89.2464072
  25.2365014  48.2969027  89.0292109  26.3937186  52.1108493  91.1781261
  26.5703815  53.0326457  90.9902245  27.1894020  51.7966912  91.6075641
  25.6789543  44.1573125 101.0543424  25.5643058  43.2558382 101.3550523
  24.8234060  44.4036821 100.7028240  32.7581380  52.0990865 102.6530925
  32.3145235  51.3127244 102.3351829  33.4198594  52.2870015 101.9874815
  27.5168502  53.6286667  97.1791603  28.0675927  53.5003730  96.4068597
  26.6779978  53.9281556  96.8286496  34.8562619  52.3793665 100.6812326
  34.8381094  53.2002546 100.1892595  35.7782539  52.2547740 100.9062467
  31.3135673  49.8937794 101.5235834  31.8464010  49.1326083 101.2935142
  30.7849754  49.6011446 102.2659989  34.4805368  34.9997860  97.0529476
  34.1369637  35.8899502  96.9768587  34.8484330  34.8099518  96.1899061
  22.5491218  47.3231391  89.8718078  23.3866440  47.7328399  89.6551786
  22.7269486  46.3830833  89.8418272  34.4455650  44.9906471  85.5601911
  33.9302274  45.7611076  85.7990298  34.1732959  44.3171608  86.1834972
  32.0302761  39.8356172  90.6187149  31.1744358  39.4463023  90.4392788
  32.4429713  39.9148133  89.7586935  33.5601908  37.3702515  95.0178709
  33.0566704  37.3332651  94.2046514  33.8532515  38.2795258  95.0775366
  29.8044794  37.4541245  94.0244891  30.6697791  37.2584054  93.6650780
  29.8722303  37.2251597  94.9514248  39.4189925  47.7438826  87.4955085
  38.6419367  47.4049986  87.0510247  40.0981406  47.7491449  86.8210050
  34.2341954  42.8633564  87.3861692  33.9292089  43.1779713  88.2371835
  35.1872396  42.9414983  87.4289025  32.6788385  49.0223787  89.0354646
  32.1509747  48.2876546  88.7227884  32.1775888  49.7998463  88.7894615
  37.6581231  47.2172807  94.1521693  37.0004906  47.9072069  94.2401821
  38.4621631  47.6069239  94.4955679  27.4107113  39.6843453  91.3961258
  27.9850865  39.4618635  90.6634451  27.9978095  39.7532148  92.1489859
  36.4686690  45.5717180  92.2025634  36.9818572  46.2047172  92.7047344
  37.1187914  44.9718376  91.8368994  27.7376700  41.7147914  85.4157143
  26.9014012  42.0522601  85.7366418  27.5981470  41.5796894  84.4784280
  29.7129781  36.5584702  90.1236327  29.0594193  36.2433719  89.4992942
  29.6710255  35.9360442  90.8496150  30.8240986  46.8403997  82.0389619
  29.9168047  46.6093251  82.2380768  31.3212018  46.0441616  82.2263601
  33.7309064  55.5501504  84.9586305  33.0570763  55.8533201  85.5671263
  34.1174886  56.3530585  84.6091762  32.9467521  43.0466636  94.4483975
  32.0290082  43.2681583  94.2905663  33.3627665  43.1212946  93.5895682
  33.7302569  44.4458051  89.5786655  34.4774388  44.9579448  89.2693777
  33.9994158  44.1242104  90.4391049  32.0029219  46.9416592  86.5613609
  31.0940438  46.6575625  86.6586079  32.0324303  47.3615671  85.7016916
  37.2348486  50.5523181  90.3304777  36.7810814  49.7114091  90.3869967
  36.6042453  51.1884580  90.6679557  36.1781406  41.4815167  91.5605444
  35.4404163  40.9692554  91.8915687  36.4308180  41.0415549  90.7488721
  35.6781426  52.3899678  91.2654595  35.9704400  52.9504735  90.5466961
  36.1880046  52.6828239  92.0207754  36.2793033  34.2591420  92.1547214
  36.5851910  33.3988783  91.8673129  37.0045638  34.8509040  91.9546208
  22.5717389  44.6622106  90.5428812  22.3741789  44.0691467  89.8179878
  22.0164053  44.3574316  91.2604750  30.5514113  44.5545213  92.6623405
  30.6062723  43.6019049  92.5865881  29.7405315  44.7104652  93.1464703
  31.7005307  48.4825336  83.9001688  31.2624737  47.7661195  83.4407325
  32.4415748  48.7101450  83.3386779  28.4906473  43.1722272  90.4213784
  27.6774339  43.4716443  90.8278976  28.9865467  42.7777961  91.1388266
  30.6415051  53.1680029  92.3548048  30.5991230  53.3940876  91.4256580
  31.5577750  52.9343404  92.5033849  34.0880685  43.6364097  99.2528677
  34.4430072  43.8635570 100.1123143  34.7352816  43.9682474  98.6305933
  39.8178422  46.7582533  89.9578006  39.6796320  46.9484129  89.0299196
  39.4614640  47.5201915  90.4146058  27.9820548  40.7440628  96.0375019
  28.6219927  40.6029387  95.3397982  27.1498078  40.4575141  95.6613620
  39.8447801  48.8259060  94.9689278  40.2784308  48.7334349  95.8172332
  40.5579382  48.8016560  94.3309294  28.7580852  50.0443058  92.1510011
  29.5521450  49.5493378  91.9492586  28.0472544  49.5160921  91.7877717
  33.5775696  52.4261154  96.5022379  33.6312718  52.9952090  97.2700094
  32.7090477  52.5963039  96.1376416  25.0663615  44.1886140  88.2269764
  24.1361203  44.1270595  88.4439726  25.1621087  43.6662093  87.4306405
  24.9849164  40.7140953  90.8148005  25.2455981  41.6286286  90.7057166
  25.8066337  40.2465395  90.9644618  26.4574090  42.1278710  97.9846830
  27.1297143  41.9196072  97.3359479  25.6303876  41.9300796  97.5452062
  40.7063351  48.8682760  97.5022163  40.8999241  49.7728571  97.7481438
  40.6063969  48.4090179  98.3360748  32.3599662  38.7540651 100.0012491
  31.7127577  39.4530601  99.9076967  33.1300677  39.1876795 100.3688739
  35.7678459  49.0189503 103.0763044  35.6163966  48.7900055 102.1593128
  35.7583139  49.9760105 103.0894389  32.5363796  46.5921416  98.0609310
  33.4655856  46.7432575  97.8878278  32.1154826  46.6805437  97.2057957
  31.3352128  50.6172080  95.8307848  31.1963213  50.2490865  96.7033786
  30.5466724  51.1319720  95.6591806  31.9300280  55.7181177  87.1733385
  32.1052035  55.2469220  87.9879007  31.2433068  56.3446943  87.4014645
  32.8857343  49.9953683  93.2196686  32.5507175  49.9554453  94.1154336
  32.3861288  49.3298399  92.7467096  26.8601587  45.4021313  98.7449267
  26.7221385  44.6701552  99.3460806  27.7706510  45.3130213  98.4633455
  35.8216534  47.3409717  83.4933745  35.2045705  46.6156545  83.3966798
  35.3533023  48.1019078  83.1500820  29.4883887  45.1141272  98.2332947
  30.1983506  44.4734464  98.1919565  29.4453196  45.3654167  99.1559127
  37.4770666  52.0508626 101.1539526  37.4183212  51.3667846 100.4870109
  37.8790184  52.7927616 100.7020152  28.2012821  42.1006490 100.0528586
  27.6650178  41.6497229 100.7050182  27.6129530  42.2352399  99.3099050
  26.4961365  58.8670539  93.9473245  26.7357963  59.4989064  94.6252263
  25.6530561  58.5158579  94.2338604  27.6115080  41.5595142  82.6155050
  26.7344547  41.4383942  82.2517296  28.0872833  40.7681220  82.3633938
  37.4788073  50.0148210  99.3853506  36.5914852  49.6774131  99.5079904
  38.0486624  49.2831241  99.6222271  19.1317220  46.3472301  92.7096557
  19.8188260  46.0334031  92.1217572  18.9765349  47.2513666  92.4363808
  23.9351943  41.2362498  97.1381581  23.8510131  40.6288167  96.4031991
  23.1134649  41.7271516  97.1391077  31.0089227  54.6749662  96.3514749
  30.9359398  55.4804633  96.8634053  30.5666620  54.8741628  95.5262770
  30.7979006  53.9121432  89.8617570  30.0146528  54.4543112  89.9555795
  31.4971752  54.4295412  90.2611811  34.1075657  39.7216061  92.5051776
  34.6044356  38.9686024  92.1852846  33.3362638  39.7580378  91.9394985
  41.9605414  45.4256427  94.1470067  41.9495290  46.3081142  93.7764000
  41.0922793  45.0727978  93.9524604  33.4687910  54.5736496  98.5072907
  34.1815882  55.2083961  98.4348809  32.9777939  54.6700362  97.6912909
  35.1905437  48.4787749  90.0790199  34.2561716  48.5989211  89.9094903
  35.3682106  47.5760215  89.8150209  30.6910625  41.8633444  92.2323460
  30.3208413  41.3104485  92.9204366  31.1869718  41.2591578  91.6798460
  38.5777989  44.3205068  90.6140233  39.0438441  45.1533059  90.5400536
  39.0285489  43.8550049  91.3185492  28.5199824  52.3230939  99.3278478
  29.2209283  52.9567422  99.4807872  28.0494939  52.6645671  98.5674117
  36.6454220  50.6648889  87.6126385  36.9214064  50.5505484  88.5220259
  35.7758718  50.2666374  87.5738558  36.5494651  36.6885655  94.6531135
  35.6357731  36.9189882  94.8213341  36.9787753  36.7724099  95.5045167
  36.3201110  44.8775547  97.1531029  35.6672560  45.1251454  96.4983481
  36.6981490  44.0639685  96.8193506  33.2808284  54.9135240  91.2559199
  33.4630678  54.0956896  91.7186951  34.1041270  55.1302932  90.8184089
  33.6150449  53.8403425  88.5174247  34.1438216  53.3295880  87.9044409
  33.8778669  53.5245955  89.3819780  32.3688683  45.6195358 103.6397066
  31.6929320  45.5189487 104.3099441  33.1916317  45.4634572 104.1033063
  24.1167542  51.8567294  96.2609581  24.7020979  51.1110982  96.3937485
  23.9192380  52.1671251  97.1446245  26.9706197  54.8918542  91.2772023
  26.3016572  55.3764669  90.7936063  26.8319067  55.1387762  92.1915402
  18.7085197  44.4272895  94.9814024  18.7469296  43.8936485  95.7751142
  18.2025489  43.9008100  94.3625001  31.1111466  56.9262285  97.8754682
  31.6629774  57.0893907  98.6403767  31.4517659  57.5166723  97.2034706
  26.0875959  39.2737435  98.4776566  26.1517285  40.1352266  98.0653964
  26.0243079  38.6611437  97.7448925  35.9622340  51.7523543 103.7303336
  36.5062244  52.3653501 103.2358291  35.3809185  52.3103121 104.2470349
  22.3393774  43.1536997  88.0567955  22.6347215  42.2447675  88.0035009
  21.4381810  43.1324736  87.7348958  34.2479853  54.8744261  94.8618364
  34.1230992  54.0734001  94.3529309  34.9058944  55.3690454  94.3732334
  25.8688021  41.2292993  94.0395504  25.1474607  41.8428961  93.9002977
  26.6581277  41.7650758  93.9612150  36.3114761  52.6753281  96.4897914
  35.3645097  52.5558632  96.4176241  36.6597534  51.7875779  96.5724175
  24.0681616  40.8351094  88.1807281  23.7394322  39.9548473  87.9982387
  24.4220986  40.7798763  89.0683670  33.3161195  52.4705997  92.6902266
  33.1686157  51.5422705  92.8709836  34.1414688  52.4926088  92.2059341
  27.1823439  41.1224064  88.5482758  27.5219511  41.6509986  87.8261367
  27.6295559  41.4604470  89.3241325  36.9195316  53.2934556  93.7767139
  37.8441864  53.0877417  93.6391590  36.7510620  53.0450957  94.6856480
  29.8766880  39.5061115  97.9985826  29.5363700  38.7068928  98.4006506
  29.1705886  39.8062826  97.4262660  30.5283352  36.5910427  96.4513149
  31.3509421  36.1170906  96.3292040  30.7721415  37.3700911  96.9511836
  29.1691586  39.6198686  86.7476051  29.8899949  39.9979939  86.2439768
  28.5456890  40.3387563  86.8511029  33.3122709  40.3243835  87.6834383
  33.5286323  41.2068473  87.3823212  32.8316776  39.9330048  86.9540025
  28.0521930  43.2829548  94.2605128  27.9066511  43.5969851  95.1529409
  27.5747134  43.9014448  93.7076027  29.9118313  40.2732096  94.3086018
  29.8979882  39.3773189  93.9718315  30.6290741  40.2802760  94.9424304
  31.7644444  40.7069436  96.3539145  31.5062222  41.6286507  96.3523475
  31.2329484  40.3099871  97.0439609  36.7090633  53.8120223  89.1329230
  36.8827510  53.2466646  88.3803083  37.2019524  54.6121118  88.9508720
  22.5267593  45.8234892  97.1992789  21.9821061  46.5994700  97.3313063
  23.4046942  46.1705697  97.0411911  29.3155209  39.1546476  89.5773588
  29.4371120  38.2263123  89.7764475  29.0257252  39.1685162  88.6651903
  32.1846400  36.8401387  92.7140307  32.2068096  36.9040720  91.7592287
  32.6014459  36.0005895  92.9080814  42.5630024  46.5756646  90.7519530
  43.0061170  45.8263972  90.3538653  41.6856534  46.5666783  90.3693262
  37.6965805  53.1286988  86.2326129  38.3916710  53.7493680  86.4513443
  38.0388955  52.2782339  86.5078506  23.3133614  44.9504789 100.0922946
  22.5715350  45.0987424 100.6787576  22.9926359  45.2113054  99.2289695
  39.5957228  50.5786693  87.7613459  40.1208552  50.9173966  87.0362779
  39.5079581  49.6433709  87.5776594  31.2577277  54.4920767  99.8903336
  31.5664403  54.2469914 100.7626036  32.0552759  54.6967405  99.4022206
  31.2797889  56.6458677  92.1208713  30.8402879  56.1535055  92.8141569
  32.0306006  56.1031644  91.8800788  23.7590228  52.8370217  92.1233341
  24.5848248  52.5373989  91.7431984  23.4084280  52.0677840  92.5723129
  28.7271761  52.1896686  94.1931014  28.1051771  51.5267391  93.8933242
  29.3976628  52.2157818  93.5104662  21.9598833  50.7556544  93.0822274
  21.1230741  50.3278718  92.9006275  21.9322479  50.9488987  94.0193065
  39.2851134  51.2119597 103.0664657  38.4946678  51.1943736 102.5269157
  39.0484489  51.7507891 103.8213694  39.4049009  48.0612063 100.3797386
  39.4547014  47.8962071 101.3212909  39.2962933  47.1939322  99.9895267
  28.2885268  50.7400609  87.6689475  28.4373388  51.4236073  87.0156148
  29.0951712  50.7205699  88.1838931  36.6952772  44.0442991 101.6956693
  37.5962635  43.9049456 101.4040690  36.7700746  44.2097446 102.6354870
  31.0295577  41.4209846 100.5409879  30.1598887  41.7143412 100.2692467
  31.2655058  42.0050291 101.2617143  40.9067206  50.4809005 100.6239407
  40.6152015  50.8438985 101.4602868  40.2939338  49.7676013 100.4452739
  42.1062889  48.0461885  93.1441978  42.9409780  48.4851689  93.3079538
  42.2422017  47.5700538  92.3250223  39.1554395  45.6041619  99.0919465
  39.6308516  45.7969266  98.2838317  38.2319960  45.6600805  98.8462849
  26.0437901  46.7665787  88.6750544  25.7983943  45.8628117  88.8730754
  26.2133816  46.7682937  87.7330022  33.7334611  37.6389463  98.0575299
  34.2516555  38.3750490  97.7321788  33.3789744  37.9453456  98.8922058
  25.3133549  42.4994144  86.1736705  24.6202794  42.5738499  85.5176741
  25.0685301  41.7354488  86.6958222  33.9847205  34.0589746  93.5776196
  34.2648959  33.3912935  94.2036622  34.7697812  34.2518841  93.0650860
  31.7880674  53.2348739  85.1401222  31.2154641  53.8538927  84.6871694
  32.3613467  53.7848101  85.6741144  37.8556064  42.4807380  97.3247771
  38.8073486  42.5805477  97.3459995  37.6859514  41.6885648  97.8345855
  35.8770443  39.5662963  97.5107172  35.2820375  39.8467975  96.8153661
  35.5920140  40.0556864  98.2823913  35.0077933  53.5185890  86.2709804
  35.9408607  53.4531451  86.4742680  34.9201146  54.3542156  85.8124337
  37.6365950  52.8351760  83.2313752  37.5579582  52.5011624  84.1249510
  38.4575617  53.3273528  83.2305224  40.3344141  45.7013499  96.4390071
  40.3020461  44.7629500  96.6249754  40.9444765  45.7797536  95.7055896
  32.1727472  44.5709552  82.4817275  33.1186577  44.4415760  82.5505693
  31.7941717  43.8324214  82.9586703  40.4838630  42.4924543  96.4848354
  39.9677678  41.7082999  96.2978283  41.3678578  42.1643259  96.6494873
  38.1449357  36.2365558  92.4444167  37.9474178  35.9280646  93.3287498
  38.7549062  36.9627197  92.5742096  46.1520691  46.7629506  95.5796107
  46.8824080  46.5014794  96.1403811  45.5427637  46.0258228  95.6198175
  44.2335988  44.9037369  96.1770559  43.5069152  44.7693334  95.5687050
  43.8183275  45.2114197  96.9827277  32.0566165  48.6227298 103.9417932
  32.9769174  48.8005897 104.1357978  32.0215748  47.6783344 103.7897631
  30.3570389  42.4959529  82.4172160  29.4501845  42.1992641  82.4934874
  30.6346370  42.1989347  81.5506446  21.2748330  43.8165892  92.8671206
  20.9551114  42.9631200  92.5745580  20.7281758  44.0314470  93.6229174
  25.0528237  46.5328333  96.5840713  25.2714247  47.4645441  96.6028747
  25.4654011  46.1736307  97.3695517  31.9732455  37.0396418  88.5716401
  31.1633183  36.6943503  88.9471647  32.6616872  36.7303962  89.1604013
  33.9023003  36.1174465  90.1940698  34.4554042  36.5369919  90.8530721
  34.1393090  35.1910213  90.2363654  29.1269174  39.3546464  82.5584139
  29.9888338  39.6801362  82.8179956  29.3119518  38.5677960  82.0457205
  21.1436590  47.4368804  94.8364328  20.4500061  47.0222756  94.3234282
  21.8909581  47.4789340  94.2397747  37.2801810  38.2274990  89.7019362
  36.7000479  38.8859794  89.3197415  37.0137743  37.4052335  89.2906780
  35.7305377  37.6280048  91.9040682  36.2305155  37.7396583  91.0955001
  36.3740985  37.3241101  92.5441491  23.0573332  47.3687057  92.7130343
  23.0344020  47.4674745  91.7612226  23.3673969  48.2152208  93.0347509
  25.7160710  49.4263212  96.8276957  26.6703964  49.3947155  96.7606889
  25.5173234  48.9653836  97.6427183  26.3060092  47.9964328  99.3947755
  27.1252981  48.4908407  99.4182592  26.5796900  47.0796296  99.3665322
  36.0626688  40.3875081  88.7575710  35.1752543  40.6724731  88.5395905
  36.4780677  40.2268844  87.9102987  39.4141225  40.4121602  92.4730050
  40.1901615  40.9018054  92.7454666  38.6889359  40.8379656  92.9301919
  41.8513783  41.1249221  93.5303990  42.4458274  40.8844957  92.8197298
  41.9240367  40.4056351  94.1577527  24.0710939  54.9682832  93.8447155
  23.9365407  54.2083233  93.2785153  23.6543001  55.6923732  93.3775944
  35.2069902  50.1519755  82.8523730  35.9105752  50.3569758  83.4681386
  34.4832551  50.7196517  83.1172814  36.0367712  45.9029617  88.9726001
  35.9802914  46.3598168  88.1333633  36.5896055  45.1420301  88.7948843
  39.8472518  41.6919348  89.7976120  39.5909452  41.2915984  90.6284328
  39.2225386  42.4063142  89.6726259  44.1584856  44.4315422  92.3047411
  43.5984414  44.5008611  93.0778973  43.5528359  44.2556406  91.5846908
  27.2280065  55.8652149  94.0565598  27.1112449  56.8097581  93.9544288
  26.4072511  55.5625710  94.4451397  37.1156599  50.5902285  84.9022190
  37.9502203  50.1583483  84.7199665  36.9540942  50.4184298  85.8299085
  36.7702491  47.0934398  86.2678530  36.7151295  46.9278669  85.3266974
  36.1448547  47.8010431  86.4240719  34.0848399  49.3983310 105.5932092
  34.9539558  49.5723962 105.2318727  33.6055150  50.2177727 105.4707822
  30.0798617  36.5942507  85.8463848  30.0677287  37.5384347  86.0032119
  30.9722039  36.4112652  85.5523309  28.2534579  56.5180411  97.2721526
  29.1561826  56.5504021  97.5888021  28.0271949  55.5880862  97.2867862
  30.0088181  55.2711397  93.9331605  29.0583812  55.2713259  93.8195977
  30.3120667  54.5244132  93.4167639  33.8950736  33.1885283  90.1009785
  33.1283132  32.6343770  90.2466467  34.3061441  33.2607152  90.9623937
  45.7440874  61.1071936  94.9977367  46.3819284  60.9878683  94.2940707
  45.6261717  62.0552780  95.0565319  42.5530581  61.0599364  94.9338892
  42.2149092  60.9440428  94.0459427  43.4220349  60.6590529  94.9139898
  38.4117396  62.9134840  90.9235783  37.8482261  62.8224777  90.1552071
  38.2969791  62.0934745  91.4038275  43.0350364  62.2134215 100.8925097
  43.0239004  61.8187014 100.0205601  43.1971003  61.4800288 101.4858869
  35.9581828  64.4086032  93.7620003  36.7503120  64.0676856  93.3466303
  36.1978478  64.5181007  94.6822157  43.9916955  66.5805808  86.2350248
  43.3404935  67.1659888  85.8484261  44.7861318  67.1112003  86.2945285
  37.9172582  63.6694945  86.6337382  38.6903458  63.1223932  86.4950258
  38.2697981  64.5339194  86.8451843  39.7557625  64.9971327  99.8404281
  39.4647491  65.9016958  99.7250948  40.3914609  65.0387855 100.5548351
  40.6813832  62.3748176  96.4305641  41.2777404  62.1504198  95.7162604
  40.7388803  61.6332921  97.0331089  40.2538860  59.8287611  84.2655832
  40.5064381  59.3069132  83.5039295  39.3163419  59.6653757  84.3682516
  45.2982143  58.8323389  92.0730575  46.0845232  58.4142813  91.7220992
  45.5620847  59.7369482  92.2412224  45.4692220  64.2696240  86.7719232
  44.8338053  64.3430866  87.4840137  45.1389627  64.8589839  86.0938311
  50.6990570  58.7698623  92.9763554  51.4315742  58.1997840  93.2101383
  49.9429926  58.3820223  93.4170059  39.9735149  61.7315717  86.4680207
  39.8571407  61.0560620  87.1361291  40.0837409  61.2448091  85.6512360
  42.3166690  61.1925864  90.1726896  41.9524897  60.6656485  90.8839818
  43.1733806  60.8024333  89.9993382  48.2215990  52.4820197  97.4358162
  47.8899315  53.3515608  97.2119377  47.6261604  52.1656481  98.1152193
  41.9572177  56.2215764  85.1688245  42.1246579  57.0896000  85.5358716
  41.7669346  56.3843046  84.2449534  44.7147510  64.6832743  96.8354075
  44.4148233  65.5857782  96.7269882  44.3698569  64.4164926  97.6875228
  38.1659991  61.1346540  92.8690779  37.2410488  61.0022754  93.0768471
  38.4144405  61.9140759  93.3660722  48.1144654  57.2015283  94.5151512
  47.2061531  57.1330691  94.2210273  48.0632249  57.6787228  95.3433338
  41.9361398  58.6773421  86.1534912  41.8161023  59.1230472  86.9920392
  41.2413986  59.0258739  85.5948450  35.5268802  60.7779813  93.7034569
  35.6561184  61.0314292  94.6173980  34.8466254  61.3707521  93.3839224
  39.6968290  71.4477063  89.8025043  39.6192319  72.3984888  89.8813523
  39.0929933  71.1022936  90.4599969  42.1885519  58.6204929 102.4586410
  41.4118854  59.1798849 102.4489274  42.8276083  59.1061712 102.9801280
  49.9806300  55.4031721  96.2929386  49.3380680  55.6964255  95.6469181
  49.4761229  55.2884642  97.0982583  47.6346464  59.1494895  86.9815246
  48.5464320  59.3822281  86.8062943  47.1256111  59.7331939  86.4190324
  40.4431892  61.4290382 102.0204377  41.1846576  61.9675426 101.7439200
  39.7368877  62.0556671 102.1775928  45.9187231  63.5719522 100.6176538
  46.3270587  63.1301933  99.8731170  45.1964493  62.9972150 100.8710731
  42.2718301  58.5092129  97.9910095  43.1179497  58.9331543  98.1344744
  42.2116939  57.8525753  98.6848658  46.2416046  64.1320713  94.3728827
  45.6124908  64.2966427  93.6704895  45.8541708  64.5462323  95.1439791
  50.1205278  65.0675151  91.7273191  49.4356316  65.4474052  91.1770224
  50.2049127  65.6770478  92.4605139  45.4217747  56.1696498  99.6491269
  45.1778679  56.9238558  99.1125544  45.6977677  56.5481845 100.4838516
  47.3756210  62.7135110  98.3268534  47.5873105  63.3566870  97.6502915
  47.3285958  61.8797426  97.8590464  44.9782439  55.3252931  95.2305106
  44.1166918  55.6234184  95.5221844  45.0044873  55.5423329  94.2986139
  41.7944008  63.8695121  91.6378912  42.2582353  64.1482824  90.8483535
  41.5300806  62.9678566  91.4552003  38.6868089  63.4166603  94.5758675
  39.2569446  63.8453871  93.9376160  39.2776201  63.1349187  95.2742861
  40.7312894  59.9918273  88.4468477  41.4336937  60.4439317  88.9142404
  40.3993522  59.3502092  89.0748370  39.1793256  58.5830030 102.8219687
  38.5491916  59.2646311 103.0555083  39.0729343  58.4713112 101.8772825
  34.4738228  58.2501826  93.7485611  33.6837282  58.5059355  93.2725721
  34.9649475  59.0650164  93.8537651  48.4902037  65.5907065  96.4990892
  49.3119481  65.1887253  96.2173573  48.4864440  65.4875299  97.4507007
  36.4252973  58.6146405  90.7069088  35.6284137  58.7265100  91.2252583
  36.1978566  58.9533058  89.8409978  42.2558641  65.1391109  98.6551602
  42.3203073  65.6011516  99.4909774  41.5469565  64.5088474  98.7833912
  32.7575931  58.5032317  96.1800602  33.0083969  59.3879327  96.4458178
  33.2935479  58.3236918  95.4075693  56.5808031  61.9345814  92.8475863
  55.8271739  61.3653212  92.6919868  56.7155572  61.9008478  93.7946498
  41.9706659  66.8059216  88.5230582  41.8352333  67.6510752  88.9515430
  42.5116471  67.0078494  87.7596516  38.4573998  52.8850796 105.1844938
  38.0640944  52.3316995 105.8592582  39.2740139  53.1961374 105.5751455
  35.4236056  64.3234654  89.0958508  35.9360577  65.1177904  89.2464072
  36.0758769  63.6260945  89.0292109  37.2330941  67.4400410  91.1781261
  37.4097569  68.3618375  90.9902245  38.0287774  67.1258830  91.6075641
  41.3741959  54.3008675 102.7765194  42.1151673  54.9015828 102.6969657
  41.6059882  53.5586313 102.2183237  36.5183297  59.4865042 101.0543424
  36.4036812  58.5850300 101.3550523  35.6627815  59.7328739 100.7028240
  43.5975135  67.4282783 102.6530925  43.1538989  66.6419161 102.3351829
  44.2592349  67.6161933 101.9874815  38.3562256  68.9578584  97.1791603
  38.9069681  68.8295648  96.4068597  37.5173732  69.2573473  96.8286496
  45.6956373  67.7085583 100.6812326  45.6774848  68.5294464 100.1892595
  46.6176293  67.5839658 100.9062467  42.1529427  65.2229712 101.5235834
  42.6857764  64.4618000 101.2935142  41.6243508  64.9303364 102.2659989
  45.3199122  50.3289778  97.0529476  44.9763392  51.2191420  96.9768587
  45.6878085  50.1391436  96.1899061  33.3884973  62.6523308  89.8718078
  34.2260195  63.0620317  89.6551786  33.5663240  61.7122751  89.8418272
  45.2849405  60.3198389  85.5601911  44.7696028  61.0902994  85.7990298
  45.0126713  59.6463525  86.1834972  42.8696516  55.1648090  90.6187149
  42.0138112  54.7754940  90.4392788  43.2823468  55.2440051  89.7586935
  44.3995663  52.6994433  95.0178709  43.8960458  52.6624568  94.2046514
  44.6926269  53.6087176  95.0775366  40.6438548  52.7833163  94.0244891
  41.5091545  52.5875972  93.6650780  40.7116057  52.5543515  94.9514248
  50.2583679  63.0730744  87.4955085  49.4813122  62.7341903  87.0510247
  50.9375160  63.0783367  86.8210050  45.0735708  58.1925481  87.3861692
  44.7685844  58.5071630  88.2371835  46.0266150  58.2706901  87.4289025
  43.5182140  64.3515705  89.0354646  42.9903501  63.6168464  88.7227884
  43.0169643  65.1290381  88.7894615  48.4974986  62.5464725  94.1521693
  47.8398660  63.2363986  94.2401821  49.3015385  62.9361157  94.4955679
  47.3080445  60.9009098  92.2025634  47.8212326  61.5339090  92.7047344
  47.9581669  60.3010293  91.8368994  38.5770455  57.0439832  85.4157143
  37.7407767  57.3814518  85.7366418  38.4375224  56.9088812  84.4784280
  40.5523535  51.8876620  90.1236327  39.8987948  51.5725637  89.4992942
  40.5104009  51.2652360  90.8496150  41.6634740  62.1695915  82.0389619
  40.7561802  61.9385168  82.2380768  42.1605772  61.3733534  82.2263601
  44.5702819  70.8793422  84.9586305  43.8964518  71.1825119  85.5671263
  44.9568641  71.6822502  84.6091762  43.7861276  58.3758553  94.4483975
  42.8683837  58.5973500  94.2905663  44.2021419  58.4504864  93.5895682
  44.5696323  59.7749969  89.5786655  45.3168142  60.2871366  89.2693777
  44.8387913  59.4534022  90.4391049  42.8422974  62.2708510  86.5613609
  41.9334193  61.9867542  86.6586079  42.8718057  62.6907588  85.7016916
  48.0742241  65.8815099  90.3304777  47.6204568  65.0406009  90.3869967
  47.4436208  66.5176498  90.6679557  47.0175161  56.8107085  91.5605444
  46.2797917  56.2984471  91.8915687  47.2701934  56.3707467  90.7488721
  46.5175180  67.7191596  91.2654595  46.8098155  68.2796653  90.5466961
  47.0273801  68.0120157  92.0207754  47.1186788  49.5883337  92.1547214
  47.4245665  48.7280701  91.8673129  47.8439393  50.1800957  91.9546208
  33.4111144  59.9914024  90.5428812  33.2135544  59.3983384  89.8179878
  32.8557808  59.6866234  91.2604750  41.3907868  59.8837130  92.6623405
  41.4456477  58.9310967  92.5865881  40.5799070  60.0396569  93.1464703
  42.5399061  63.8117253  83.9001688  42.1018491  63.0953112  83.4407325
  43.2809502  64.0393368  83.3386779  39.3300227  58.5014190  90.4213784
  38.5168093  58.8008361  90.8278976  39.8259222  58.1069879  91.1388266
  41.4808805  68.4971947  92.3548048  41.4384984  68.7232793  91.4256580
  42.3971504  68.2635322  92.5033849  44.9274439  58.9656014  99.2528677
  45.2823827  59.1927488 100.1123143  45.5746570  59.2974391  98.6305933
  50.6572176  62.0874450  89.9578006  50.5190075  62.2776046  89.0299196
  50.3008395  62.8493833  90.4146058  38.8214302  56.0732546  96.0375019
  39.4613682  55.9321305  95.3397982  37.9891833  55.7867059  95.6613620
  50.6841556  64.1550977  94.9689278  51.1178062  64.0626266  95.8172332
  51.3973136  64.1308478  94.3309294  39.5974606  65.3734976  92.1510011
  40.3915205  64.8785296  91.9492586  38.8866299  64.8452839  91.7877717
  44.4169451  67.7553071  96.5022379  44.4706473  68.3244008  97.2700094
  43.5484232  67.9254957  96.1376416  35.9057370  59.5178058  88.2269764
  34.9754958  59.4562513  88.4439726  36.0014842  58.9954010  87.4306405
  35.8242919  56.0432871  90.8148005  36.0849736  56.9578204  90.7057166
  36.6460091  55.5757313  90.9644618  37.2967844  57.4570628  97.9846830
  37.9690897  57.2487990  97.3359479  36.4697631  57.2592714  97.5452062
  51.5457105  64.1974678  97.5022163  51.7392995  65.1020489  97.7481438
  51.4457723  63.7382097  98.3360748  43.1993416  54.0832569 100.0012491
  42.5521331  54.7822518  99.9076967  43.9694431  54.5168713 100.3688739
  46.6072214  64.3481421 103.0763044  46.4557720  64.1191972 102.1593128
  46.5976893  65.3052022 103.0894389  43.3757550  61.9213333  98.0609310
  44.3049610  62.0724493  97.8878278  42.9548580  62.0097354  97.2057957
  42.1745882  65.9463998  95.8307848  42.0356968  65.5782782  96.7033786
  41.3860478  66.4611637  95.6591806  42.7694034  71.0473094  87.1733385
  42.9445790  70.5761138  87.9879007  42.0826822  71.6738861  87.4014645
  43.7251097  65.3245601  93.2196686  43.3900930  65.2846371  94.1154336
  43.2255043  64.6590317  92.7467096  37.6995341  60.7313231  98.7449267
  37.5615139  59.9993469  99.3460806  38.6100265  60.6422131  98.4633455
  46.6610289  62.6701635  83.4933745  46.0439460  61.9448463  83.3966798
  46.1926777  63.4310995  83.1500820  40.3277642  60.4433190  98.2332947
  41.0377260  59.8026382  98.1919565  40.2846950  60.6946085  99.1559127
  48.3164421  67.3800543 101.1539526  48.2576967  66.6959763 100.4870109
  48.7183939  68.1219533 100.7020152  39.0406576  57.4298408 100.0528586
  38.5043933  56.9789146 100.7050182  38.4523284  57.5644317  99.3099050
  37.3355119  74.1962457  93.9473245  37.5751718  74.8280981  94.6252263
  36.4924316  73.8450497  94.2338604  38.4508835  56.8887059  82.6155050
  37.5738301  56.7675860  82.2517296  38.9266588  56.0973138  82.3633938
  48.3181828  65.3440127  99.3853506  47.4308607  65.0066049  99.5079904
  48.8880379  64.6123158  99.6222271  29.9710975  61.6764219  92.7096557
  30.6582015  61.3625949  92.1217572  29.8159104  62.5805584  92.4363808
  34.7745697  56.5654416  97.1381581  34.6903886  55.9580085  96.4031991
  33.9528404  57.0563434  97.1391077  41.8482981  70.0041580  96.3514749
  41.7753153  70.8096551  96.8634053  41.4060374  70.2033545  95.5262770
  41.6372761  69.2413350  89.8617570  40.8540283  69.7835030  89.9555795
  42.3365506  69.7587329  90.2611811  44.9469411  55.0507979  92.5051776
  45.4438111  54.2977941  92.1852846  44.1756393  55.0872296  91.9394985
  52.7999168  60.7548345  94.1470067  52.7889045  61.6373060  93.7764000
  51.9316548  60.4019895  93.9524604  44.3081665  69.9028414  98.5072907
  45.0209637  70.5375878  98.4348809  43.8171693  69.9992280  97.6912909
  46.0299192  63.8079666  90.0790199  45.0955470  63.9281129  89.9094903
  46.2075860  62.9052133  89.8150209  41.5304380  57.1925362  92.2323460
  41.1602167  56.6396402  92.9204366  42.0263472  56.5883496  91.6798460
  49.4171743  59.6496986  90.6140233  49.8832195  60.4824977  90.5400536
  49.8679244  59.1841967  91.3185492  39.3593578  67.6522857  99.3278478
  40.0603038  68.2859340  99.4807872  38.8888693  67.9937589  98.5674117
  47.4847974  65.9940807  87.6126385  47.7607818  65.8797401  88.5220259
  46.6152473  65.5958292  87.5738558  47.3888406  52.0177573  94.6531135
  46.4751486  52.2481799  94.8213341  47.8181507  52.1016017  95.5045167
  47.1594864  60.2067465  97.1531029  46.5066315  60.4543372  96.4983481
  47.5375244  59.3931603  96.8193506  44.1202038  70.2427158  91.2559199
  44.3024433  69.4248814  91.7186951  44.9435024  70.4594850  90.8184089
  44.4544204  69.1695343  88.5174247  44.9831970  68.6587797  87.9044409
  44.7172423  68.8537873  89.3819780  43.2082437  60.9487276 103.6397066
  42.5323074  60.8481405 104.3099441  44.0310071  60.7926489 104.1033063
  34.9561296  67.1859212  96.2609581  35.5414733  66.4402900  96.3937485
  34.7586135  67.4963169  97.1446245  37.8099952  70.2210460  91.2772023
  37.1410327  70.7056587  90.7936063  37.6712821  70.4679680  92.1915402
  29.5478951  59.7564812  94.9814024  29.5863051  59.2228403  95.7751142
  29.0419244  59.2300018  94.3625001  41.9505220  72.2554203  97.8754682
  42.5023528  72.4185825  98.6403767  42.2911414  72.8458641  97.2034706
  36.9269713  54.6029353  98.4776566  36.9911040  55.4644184  98.0653964
  36.8636834  53.9903355  97.7448925  36.4021986  56.6752485 102.1249601
  37.0294025  56.2929563 102.7387125  35.5449905  56.4566687 102.4905293
  46.8016095  67.0815461 103.7303336  47.3455998  67.6945419 103.2358291
  46.2202939  67.6395039 104.2470349  33.1787529  58.4828915  88.0567955
  33.4740970  57.5739593  88.0035009  32.2775564  58.4616654  87.7348958
  45.0873607  70.2036179  94.8618364  44.9624747  69.4025918  94.3529309
  45.7452699  70.6982372  94.3732334  36.7081776  56.5584911  94.0395504
  35.9868361  57.1720879  93.9002977  37.4975031  57.0942676  93.9612150
  47.1508516  68.0045199  96.4897914  46.2038851  67.8850550  96.4176241
  47.4991289  67.1167697  96.5724175  39.5108089  53.8939338 100.3136156
  40.0342491  54.1401634 101.0762465  39.2920422  54.7259372  99.8939293
  34.9075370  56.1643012  88.1807281  34.5788076  55.2840391  87.9982387
  35.2614741  56.1090681  89.0683670  44.1554949  67.7997915  92.6902266
  44.0079912  66.8714622  92.8709836  44.9808443  67.8218006  92.2059341
  38.0217193  56.4515982  88.5482758  38.3613266  56.9801903  87.8261367
  38.4689314  56.7896388  89.3241325  47.7589071  68.6226474  93.7767139
  48.6835618  68.4169335  93.6391590  47.5904374  68.3742875  94.6856480
  40.7160634  54.8353033  97.9985826  40.3757455  54.0360846  98.4006506
  40.0099641  55.1354744  97.4262660  41.3677106  51.9202345  96.4513149
  42.1903175  51.4462823  96.3292040  41.6115170  52.6992829  96.9511836
  40.0085341  54.9490604  86.7476051  40.7293703  55.3271856  86.2439768
  39.3850645  55.6679480  86.8511029  44.1516463  55.6535753  87.6834383
  44.3680078  56.5360390  87.3823212  43.6710531  55.2621966  86.9540025
  38.8915685  58.6121466  94.2605128  38.7460266  58.9261769  95.1529409
  38.4140888  59.2306366  93.7076027  40.7512068  55.6024014  94.3086018
  40.7373636  54.7065107  93.9718315  41.4684496  55.6094677  94.9424304
  42.6038198  56.0361354  96.3539145  42.3455976  56.9578425  96.3523475
  42.0723239  55.6391788  97.0439609  47.5484387  69.1412141  89.1329230
  47.7221265  68.5758564  88.3803083  48.0413278  69.9413036  88.9508720
  33.3661347  61.1526810  97.1992789  32.8214815  61.9286618  97.3313063
  34.2440697  61.4997615  97.0411911  40.1548964  54.4838394  89.5773588
  40.2764875  53.5555040  89.7764475  39.8651006  54.4977080  88.6651903
  43.0240154  52.1693304  92.7140307  43.0461851  52.2332638  91.7592287
  43.4408213  51.3297813  92.9080814  53.4023778  61.9048564  90.7519530
  53.8454924  61.1555889  90.3538653  52.5250289  61.8958700  90.3693262
  48.5359560  68.4578905  86.2326129  49.2310464  69.0785598  86.4513443
  48.8782710  67.6074257  86.5078506  34.1527369  60.2796706 100.0922946
  33.4109105  60.4279342 100.6787576  33.8320113  60.5404972  99.2289695
  50.4350983  65.9078611  87.7613459  50.9602307  66.2465884  87.0362779
  50.3473335  64.9725626  87.5776594  42.0971032  69.8212685  99.8903336
  42.4058158  69.5761831 100.7626036  42.8946514  70.0259323  99.4022206
  42.1191644  71.9750594  92.1208713  41.6796634  71.4826973  92.8141569
  42.8699761  71.4323562  91.8800788  34.5983983  68.1662135  92.1233341
  35.4242002  67.8665907  91.7431984  34.2478035  67.3969758  92.5723129
  39.5665516  67.5188603  94.1931014  38.9445525  66.8559308  93.8933242
  40.2370383  67.5449735  93.5104662  32.7992588  66.0848462  93.0822274
  31.9624496  65.6570636  92.9006275  32.7716233  66.2780905  94.0193065
  39.6390043  55.9970391 103.7863520  39.6878199  56.8732514 103.4041290
  40.1812557  55.4547784 103.2135163  50.1244889  66.5411515 103.0664657
  49.3340433  66.5235653 102.5269157  49.8878243  67.0799808 103.8213694
  50.2442764  63.3903981 100.3797386  50.2940769  63.2253988 101.3212909
  50.1356687  62.5231240  99.9895267  39.1279023  66.0692527  87.6689475
  39.2767143  66.7527991  87.0156148  39.9345466  66.0497617  88.1838931
  47.5346526  59.3734909 101.6956693  48.4356389  59.2341374 101.4040690
  47.6094501  59.5389364 102.6354870  41.8689332  56.7501764 100.5409879
  40.9992641  57.0435330 100.2692467  42.1048812  57.3342209 101.2617143
  51.7460961  65.8100923 100.6239407  51.4545769  66.1730903 101.4602868
  51.1333092  65.0967931 100.4452739  52.9456643  63.3753802  93.1441978
  53.7803534  63.8143606  93.3079538  53.0815772  62.8992456  92.3250223
  49.9948149  60.9333537  99.0919465  50.4702271  61.1261183  98.2838317
  49.0713714  60.9892723  98.8462849  36.8831656  62.0957704  88.6750544
  36.6377698  61.1920034  88.8730754  37.0527570  62.0974855  87.7330022
  44.5728365  52.9681381  98.0575299  45.0910309  53.7042408  97.7321788
  44.2183498  53.2745374  98.8922058  36.1527303  57.8286062  86.1736705
  35.4596548  57.9030417  85.5176741  35.9079055  57.0646406  86.6958222
  44.8240960  49.3881663  93.5776196  45.1042713  48.7204852  94.2036622
  45.6091567  49.5810759  93.0650860  42.6274428  68.5640657  85.1401222
  42.0548395  69.1830844  84.6871694  43.2007222  69.1140019  85.6741144
  48.6949818  57.8099297  97.3247771  49.6467241  57.9097395  97.3459995
  48.5253268  57.0177566  97.8345855  46.7164197  54.8954880  97.5107172
  46.1214130  55.1759893  96.8153661  46.4313894  55.3848781  98.2823913
  45.8471688  68.8477807  86.2709804  46.7802361  68.7823369  86.4742680
  45.7594901  69.6834074  85.8124337  48.4759705  68.1643678  83.2313752
  48.3973336  67.8303541  84.1249510  49.2969371  68.6565446  83.2305224
  51.1737896  61.0305417  96.4390071  51.1414216  60.0921418  96.6249754
  51.7838519  61.1089454  95.7055896  43.0121227  59.9001470  82.4817275
  43.9580331  59.7707678  82.5505693  42.6335472  59.1616132  82.9586703
  51.3232384  57.8216460  96.4848354  50.8071433  57.0374917  96.2978283
  52.2072333  57.4935177  96.6494873  48.9843111  51.5657476  92.4444167
  48.7867932  51.2572564  93.3287498  49.5942817  52.2919115  92.5742096
  56.9914446  62.0921424  95.5796107  57.7217834  61.8306712  96.1403811
  56.3821391  61.3550146  95.6198175  55.0729743  60.2329286  96.1770559
  54.3462906  60.0985251  95.5687050  54.6577030  60.5406115  96.9827277
  42.8959919  63.9519216 103.9417932  43.8162929  64.1297815 104.1357978
  42.8609502  63.0075261 103.7897631  41.1964144  57.8251446  82.4172160
  40.2895599  57.5284559  82.4934874  41.4740125  57.5281264  81.5506446
  32.1142084  59.1457810  92.8671206  31.7944869  58.2923118  92.5745580
  31.5675512  59.3606388  93.6229174  35.8921992  61.8620251  96.5840713
  36.1108002  62.7937359  96.6028747  36.3047766  61.5028225  97.3695517
  42.8126210  52.3688336  88.5716401  42.0026938  52.0235421  88.9471647
  43.5010626  52.0595880  89.1604013  44.7416758  51.4466383  90.1940698
  45.2947796  51.8661836  90.8530721  44.9786844  50.5202131  90.2363654
  40.7649857  57.4353456 105.9743462  40.6646584  58.3847813 105.9055553
  40.5471399  57.1071695 105.1019532  31.9830344  62.7660721  94.8364328
  31.2893816  62.3514674  94.3234282  32.7303335  62.8081258  94.2397747
  48.1195565  53.5566908  89.7019362  47.5394234  54.2151712  89.3197415
  47.8531498  52.7344253  89.2906780  46.5699131  52.9571966  91.9040682
  47.0698910  53.0688500  91.0955001  47.2134739  52.6533019  92.5441491
  40.6281127  60.8650595 104.7908523  40.1448209  61.6650955 104.9972412
  40.7142066  60.8758540 103.8375967  33.8967087  62.6978975  92.7130343
  33.8737775  62.7966662  91.7612226  34.2067723  63.5444126  93.0347509
  36.5554465  64.7555130  96.8276957  37.5097718  64.7239072  96.7606889
  36.3566988  64.2945754  97.6427183  37.1453847  63.3256246  99.3947755
  37.9646736  63.8200325  99.4182592  37.4190654  62.4088214  99.3665322
  46.9020443  55.7166998  88.7575710  46.0146298  56.0016649  88.5395905
  47.3174432  55.5560762  87.9102987  50.2534979  55.7413519  92.4730050
  51.0295369  56.2309972  92.7454666  49.5283113  56.1671574  92.9301919
  52.6907538  56.4541139  93.5303990  53.2852028  56.2136875  92.8197298
  52.7634121  55.7348269  94.1577527  34.9104693  70.2974749  93.8447155
  34.7759161  69.5375150  93.2785153  34.4936756  71.0215649  93.3775944
  46.0463656  65.4811673  82.8523730  46.7499507  65.6861676  83.4681386
  45.3226305  66.0488435  83.1172814  46.8761467  61.2321534  88.9726001
  46.8196668  61.6890086  88.1333633  47.4289809  60.4712219  88.7948843
  50.6866273  57.0211266  89.7976120  50.4303207  56.6207902  90.6284328
  50.0619141  57.7355060  89.6726259  54.9978610  59.7607339  92.3047411
  54.4378168  59.8300529  93.0778973  54.3922114  59.5848324  91.5846908
  38.0673819  71.1944067  94.0565598  37.9506203  72.1389499  93.9544288
  37.2466266  70.8917628  94.4451397  47.9550354  65.9194202  84.9022190
  48.7895958  65.4875401  84.7199665  47.7934697  65.7476216  85.8299085
  47.6096246  62.4226316  86.2678530  47.5545050  62.2570587  85.3266974
  46.9842301  63.1302348  86.4240719  32.3988761  57.6594380 100.0939952
  33.0447625  57.1493334 100.5827177  32.1905912  58.3963062 100.6683377
  44.9242153  64.7275227 105.5932092  45.7933313  64.9015880 105.2318727
  44.4448905  65.5469644 105.4707822  40.9192371  51.9234425  85.8463848
  40.9071041  52.8676264  86.0032119  41.8115793  51.7404570  85.5523309
  39.0928333  71.8472328  97.2721526  39.9955580  71.8795939  97.5888021
  38.8665703  70.9172779  97.2867862  40.8481935  70.6003315  93.9331605
  39.8977566  70.6005177  93.8195977  41.1514422  69.8536050  93.4167639
  44.7344491  48.5177201  90.1009785  43.9676887  47.9635688  90.2466467
  45.1455196  48.5899070  90.9623937  36.7386252  54.8061997 104.1914966
  37.6017714  54.4498802 104.4018291  36.1651663  54.4675892 104.8790370
  56.5834629  76.4363853  94.9977367  57.2213039  76.3170601  94.2940707
  56.4655472  77.3844697  95.0565319  53.3924335  76.3891281  94.9338892
  53.0542847  76.2732346  94.0459427  54.2614103  75.9882447  94.9139898
  49.2511151  78.2426758  90.9235783  48.6876016  78.1516695  90.1552071
  49.1363546  77.4226662  91.4038275  53.8744118  77.5426133 100.8925097
  53.8632759  77.1478931 100.0205601  54.0364758  76.8092206 101.4858869
  46.7975583  79.7377949  93.7620003  47.5896875  79.3968774  93.3466303
  47.0372233  79.8472924  94.6822157  54.8310710  81.9097726  86.2350248
  54.1798689  82.4951806  85.8484261  55.6255072  82.4403920  86.2945285
  48.7566337  78.9986863  86.6337382  49.5297213  78.4515850  86.4950258
  49.1091736  79.8631112  86.8451843  50.5951379  80.3263245  99.8404281
  50.3041245  81.2308876  99.7250948  51.2308364  80.3679773 100.5548351
  51.5207586  77.7040093  96.4305641  52.1171158  77.4796116  95.7162604
  51.5782558  76.9624839  97.0331089  51.0932615  75.1579529  84.2655832
  51.3458135  74.6361050  83.5039295  50.1557174  74.9945674  84.3682516
  56.1375897  74.1615307  92.0730575  56.9238987  73.7434730  91.7220992
  56.4014602  75.0661399  92.2412224  56.3085975  79.5988157  86.7719232
  55.6731808  79.6722784  87.4840137  55.9783381  80.1881756  86.0938311
  61.5384324  74.0990540  92.9763554  62.2709496  73.5289757  93.2101383
  60.7823680  73.7112141  93.4170059  50.8128903  77.0607635  86.4680207
  50.6965161  76.3852538  87.1361291  50.9231163  76.5740009  85.6512360
  53.1560444  76.5217782  90.1726896  52.7918651  75.9948403  90.8839818
  54.0127560  76.1316251  89.9993382  59.0609745  67.8112114  97.4358162
  58.7293070  68.6807525  97.2119377  58.4655358  67.4948398  98.1152193
  52.7965931  71.5507682  85.1688245  52.9640334  72.4187918  85.5358716
  52.6063100  71.7134963  84.2449534  55.5541264  80.0124660  96.8354075
  55.2541987  80.9149699  96.7269882  55.2092324  79.7456844  97.6875228
  49.0053746  76.4638457  92.8690779  48.0804242  76.3314671  93.0768471
  49.2538159  77.2432677  93.3660722  58.9538408  72.5307201  94.5151512
  58.0455286  72.4622609  94.2210273  58.9026004  73.0079146  95.3433338
  52.7755152  74.0065339  86.1534912  52.6554777  74.4522390  86.9920392
  52.0807740  74.3550657  85.5948450  46.3662557  76.1071731  93.7034569
  46.4954938  76.3606210  94.6173980  45.6860008  76.6999439  93.3839224
  50.5362044  86.7768981  89.8025043  50.4586074  87.7276806  89.8813523
  49.9323688  86.4314853  90.4599969  53.0279274  73.9496846 102.4586410
  52.2512608  74.5090766 102.4489274  53.6669837  74.4353629 102.9801280
  60.8200055  70.7323639  96.2929386  60.1774435  71.0256172  95.6469181
  60.3154983  70.6176559  97.0982583  58.4740218  74.4786812  86.9815246
  59.3858074  74.7114199  86.8062943  57.9649865  75.0623856  86.4190324
  51.2825646  76.7582300 102.0204377  52.0240331  77.2967344 101.7439200
  50.5762632  77.3848588 102.1775928  56.7580986  78.9011440 100.6176538
  57.1664342  78.4593851  99.8731170  56.0358247  78.3264068 100.8710731
  53.1112056  73.8384047  97.9910095  53.9573251  74.2623460  98.1344744
  53.0510694  73.1817671  98.6848658  57.0809801  79.4612631  94.3728827
  56.4518663  79.6258345  93.6704895  56.6935463  79.8754240  95.1439791
  60.9599032  80.3967069  91.7273191  60.2750071  80.7765970  91.1770224
  61.0442882  81.0062395  92.4605139  56.2611501  71.4988415  99.6491269
  56.0172433  72.2530476  99.1125544  56.5371432  71.8773763 100.4838516
  58.2149964  78.0427028  98.3268534  58.4266859  78.6858787  97.6502915
  58.1679712  77.2089344  97.8590464  55.8176193  70.6544848  95.2305106
  54.9560672  70.9526102  95.5221844  55.8438628  70.8715247  94.2986139
  52.6337762  79.1987039  91.6378912  53.0976108  79.4774742  90.8483535
  52.3694561  78.2970483  91.4552003  49.5261843  78.7458520  94.5758675
  50.0963201  79.1745789  93.9376160  50.1169955  78.4641105  95.2742861
  51.5706648  75.3210191  88.4468477  52.2730692  75.7731235  88.9142404
  51.2387277  74.6794010  89.0748370  50.0187010  73.9121948 102.8219687
  49.3885671  74.5938229 103.0555083  49.9123098  73.8005029 101.8772825
  45.3131982  73.5793744  93.7485611  44.5231036  73.8351272  93.2725721
  45.8043230  74.3942082  93.8537651  59.3295792  80.9198983  96.4990892
  60.1513236  80.5179170  96.2173573  59.3258195  80.8167217  97.4507007
  47.2646728  73.9438323  90.7069088  46.4677891  74.0557017  91.2252583
  47.0372320  74.2824975  89.8409978  53.0952395  80.4683026  98.6551602
  53.1596828  80.9303434  99.4909774  52.3863319  79.8380391  98.7833912
  43.5969685  73.8324234  96.1800602  43.8477724  74.7171244  96.4458178
  44.1329234  73.6528836  95.4075693  67.4201785  77.2637731  92.8475863
  66.6665493  76.6945130  92.6919868  67.5549326  77.2300396  93.7946498
  52.8100413  82.1351134  88.5230582  52.6746088  82.9802670  88.9515430
  53.3510226  82.3370411  87.7596516  49.2967753  68.2142714 105.1844938
  48.9034698  67.6608912 105.8592582  50.1133893  68.5253292 105.5751455
  46.2629810  79.6526572  89.0958508  46.7754331  80.4469822  89.2464072
  46.9152523  78.9552862  89.0292109  48.0724695  82.7692328  91.1781261
  48.2491324  83.6910293  90.9902245  48.8681529  82.4550747  91.6075641
  52.2135714  69.6300593 102.7765194  52.9545427  70.2307746 102.6969657
  52.4453637  68.8878231 102.2183237  47.3577052  74.8156960 101.0543424
  47.2430567  73.9142217 101.3550523  46.5021569  75.0620657 100.7028240
  49.1956011  84.2870502  97.1791603  49.7463436  84.1587565  96.4068597
  48.3567487  84.5865391  96.8286496  52.9923182  80.5521630 101.5235834
  53.5251518  79.7909918 101.2935142  52.4637263  80.2595282 102.2659989
  56.1592877  65.6581696  97.0529476  55.8157146  66.5483337  96.9768587
  56.5271839  65.4683353  96.1899061  44.2278727  77.9815226  89.8718078
  45.0653949  78.3912234  89.6551786  44.4056995  77.0414668  89.8418272
  56.1243159  75.6490307  85.5601911  55.6089783  76.4194911  85.7990298
  55.8520468  74.9755443  86.1834972  53.7090270  70.4940008  90.6187149
  52.8531867  70.1046858  90.4392788  54.1217222  70.5731968  89.7586935
  55.2389417  68.0286351  95.0178709  54.7354213  67.9916486  94.2046514
  55.5320024  68.9379094  95.0775366  51.4832303  68.1125081  94.0244891
  52.3485300  67.9167889  93.6650780  51.5509812  67.8835432  94.9514248
  61.0977434  78.4022661  87.4955085  60.3206876  78.0633821  87.0510247
  61.7768914  78.4075285  86.8210050  55.9129463  73.5217399  87.3861692
  55.6079598  73.8363548  88.2371835  56.8659905  73.5998819  87.4289025
  54.3575894  79.6807622  89.0354646  53.8297256  78.9460382  88.7227884
  53.8563397  80.4582299  88.7894615  59.3368740  77.8756643  94.1521693
  58.6792415  78.5655904  94.2401821  60.1409140  78.2653075  94.4955679
  49.0894622  70.3427288  91.3961258  49.6638374  70.1202470  90.6634451
  49.6765604  70.4115983  92.1489859  58.1474199  76.2301015  92.2025634
  58.6606081  76.8631007  92.7047344  58.7975423  75.6302211  91.8368994
  49.4164209  72.3731749  85.4157143  48.5801521  72.7106436  85.7366418
  49.2768979  72.2380729  84.4784280  51.3917290  67.2168537  90.1236327
  50.7381702  66.9017555  89.4992942  51.3497764  66.5944278  90.8496150
  52.5028495  77.4987832  82.0389619  51.5955556  77.2677086  82.2380768
  52.9999527  76.7025452  82.2263601  55.4096573  86.2085340  84.9586305
  54.7358272  86.5117036  85.5671263  55.7962395  87.0114420  84.6091762
  54.6255030  73.7050471  94.4483975  53.7077591  73.9265418  94.2905663
  55.0415174  73.7796781  93.5895682  55.4090078  75.1041887  89.5786655
  56.1561897  75.6163284  89.2693777  55.6781667  74.7825939  90.4391049
  53.6816728  77.6000427  86.5613609  52.7727947  77.3159460  86.6586079
  53.7111812  78.0199506  85.7016916  58.9135995  81.2107017  90.3304777
  58.4598323  80.3697927  90.3869967  58.2829962  81.8468415  90.6679557
  57.3568935  83.0483514  91.2654595  57.6491909  83.6088571  90.5466961
  57.8667555  83.3412075  92.0207754  57.9580542  64.9175255  92.1547214
  58.2639419  64.0572618  91.8673129  58.6833147  65.5092875  91.9546208
  44.2504898  75.3205941  90.5428812  44.0529298  74.7275302  89.8179878
  43.6951562  75.0158152  91.2604750  52.2301622  75.2129048  92.6623405
  52.2850232  74.2602884  92.5865881  51.4192824  75.3688487  93.1464703
  53.3792816  79.1409171  83.9001688  52.9412246  78.4245030  83.4407325
  54.1203257  79.3685286  83.3386779  50.1693982  73.8306108  90.4213784
  49.3561848  74.1300278  90.8278976  50.6652976  73.4361796  91.1388266
  52.3202560  83.8263865  92.3548048  52.2778739  84.0524711  91.4256580
  53.2365259  83.5927239  92.5033849  55.7668194  74.2947932  99.2528677
  56.1217581  74.5219405 100.1123143  56.4140325  74.6266309  98.6305933
  61.4965931  77.4166368  89.9578006  61.3583829  77.6067964  89.0299196
  61.1402149  78.1785751  90.4146058  49.6608057  71.4024463  96.0375019
  50.3007436  71.2613222  95.3397982  48.8285587  71.1158977  95.6613620
  61.5235310  79.4842895  94.9689278  61.9571817  79.3918184  95.8172332
  62.2366891  79.4600396  94.3309294  50.4368361  80.7026894  92.1510011
  51.2308959  80.2077214  91.9492586  49.7260053  80.1744757  91.7877717
  55.2563205  83.0844989  96.5022379  55.3100227  83.6535925  97.2700094
  54.3877986  83.2546874  96.1376416  46.7451124  74.8469975  88.2269764
  45.8148712  74.7854431  88.4439726  46.8408596  74.3245928  87.4306405
  46.6636673  71.3724788  90.8148005  46.9243490  72.2870121  90.7057166
  47.4853845  70.9049231  90.9644618  48.1361598  72.7862545  97.9846830
  48.8084652  72.5779907  97.3359479  47.3091385  72.5884631  97.5452062
  62.3850860  79.5266596  97.5022163  62.5786750  80.4312406  97.7481438
  62.2851478  79.0674015  98.3360748  54.0387170  69.4124486 100.0012491
  53.3915086  70.1114436  99.9076967  54.8088186  69.8460630 100.3688739
  54.2151305  77.2505251  98.0609310  55.1443365  77.4016411  97.8878278
  53.7942335  77.3389272  97.2057957  53.0139637  81.2755916  95.8307848
  52.8750722  80.9074700  96.7033786  52.2254233  81.7903555  95.6591806
  53.6087789  86.3765012  87.1733385  53.7839544  85.9053055  87.9879007
  52.9220577  87.0030778  87.4014645  54.5644852  80.6537518  93.2196686
  54.2294684  80.6138288  94.1154336  54.0648797  79.9882234  92.7467096
  48.5389096  76.0605148  98.7449267  48.4008894  75.3285387  99.3460806
  49.4494019  75.9714048  98.4633455  57.5004043  77.9993553  83.4933745
  56.8833214  77.2740381  83.3966798  57.0320532  78.7602913  83.1500820
  51.1671396  75.7725108  98.2332947  51.8771015  75.1318300  98.1919565
  51.1240705  76.0238002  99.1559127  49.8800330  72.7590326 100.0528586
  49.3437687  72.3081064 100.7050182  49.2917039  72.8936234  99.3099050
  48.1748874  89.5254375  93.9473245  48.4145472  90.1572899  94.6252263
  47.3318070  89.1742415  94.2338604  49.2902589  72.2178977  82.6155050
  48.4132056  72.0967778  82.2517296  49.7660342  71.4265055  82.3633938
  59.1575582  80.6732045  99.3853506  58.2702361  80.3357967  99.5079904
  59.7274133  79.9415076  99.6222271  40.8104729  77.0056137  92.7096557
  41.4975769  76.6917867  92.1217572  40.6552858  77.9097501  92.4363808
  45.6139452  71.8946333  97.1381581  45.5297640  71.2872003  96.4031991
  44.7922158  72.3855352  97.1391077  52.6876736  85.3333497  96.3514749
  52.6146907  86.1388469  96.8634053  52.2454129  85.5325463  95.5262770
  52.4766515  84.5705267  89.8617570  51.6934037  85.1126947  89.9555795
  53.1759261  85.0879247  90.2611811  55.7863165  70.3799897  92.5051776
  56.2831865  69.6269859  92.1852846  55.0150147  70.4164213  91.9394985
  63.6392923  76.0840262  94.1470067  63.6282799  76.9664978  93.7764000
  62.7710302  75.7311813  93.9524604  55.1475419  85.2320331  98.5072907
  55.8603391  85.8667796  98.4348809  54.6565448  85.3284197  97.6912909
  56.8692946  79.1371584  90.0790199  55.9349225  79.2573046  89.9094903
  57.0469615  78.2344051  89.8150209  52.3698134  72.5217280  92.2323460
  51.9995922  71.9688320  92.9204366  52.8657227  71.9175413  91.6798460
  60.2565498  74.9788903  90.6140233  60.7225950  75.8116895  90.5400536
  60.7072998  74.5133885  91.3185492  50.1987333  82.9814775  99.3278478
  50.8996792  83.6151258  99.4807872  49.7282448  83.3229506  98.5674117
  58.3241729  81.3232725  87.6126385  58.6001573  81.2089319  88.5220259
  57.4546227  80.9250209  87.5738558  58.2282160  67.3469490  94.6531135
  57.3145240  67.5773717  94.8213341  58.6575262  67.4307934  95.5045167
  57.9988619  75.5359382  97.1531029  57.3460069  75.7835290  96.4983481
  58.3768999  74.7223520  96.8193506  54.9595793  85.5719075  91.2559199
  55.1418187  84.7540731  91.7186951  55.7828779  85.7886768  90.8184089
  55.2937958  84.4987261  88.5174247  55.8225725  83.9879715  87.9044409
  55.5566178  84.1829791  89.3819780  54.0476192  76.2779193 103.6397066
  53.3716829  76.1773323 104.3099441  54.8703826  76.1218407 104.1033063
  45.7955051  82.5151130  96.2609581  46.3808488  81.7694818  96.3937485
  45.5979889  82.8255087  97.1446245  48.6493706  85.5502377  91.2772023
  47.9804081  86.0348505  90.7936063  48.5106576  85.7971598  92.1915402
  40.3872706  75.0856730  94.9814024  40.4256805  74.5520321  95.7751142
  39.8812998  74.5591936  94.3625001  52.7898975  87.5846121  97.8754682
  53.3417283  87.7477742  98.6403767  53.1305168  88.1750559  97.2034706
  47.7663468  69.9321271  98.4776566  47.8304794  70.7936101  98.0653964
  47.7030588  69.3195272  97.7448925  47.2415740  72.0044403 102.1249601
  47.8687779  71.6221480 102.7387125  46.3843659  71.7858605 102.4905293
  44.0181283  73.8120832  88.0567955  44.3134724  72.9031511  88.0035009
  43.1169319  73.7908572  87.7348958  55.9267362  85.5328096  94.8618364
  55.8018501  84.7317836  94.3529309  56.5846453  86.0274290  94.3732334
  47.5475530  71.8876829  94.0395504  46.8262116  72.5012796  93.9002977
  48.3368786  72.4234594  93.9612150  57.9902270  83.3337116  96.4897914
  57.0432606  83.2142468  96.4176241  58.3385043  82.4459614  96.5724175
  50.3501844  69.2231255 100.3136156  50.8736246  69.4693552 101.0762465
  50.1314177  70.0551290  99.8939293  45.7469125  71.4934930  88.1807281
  45.4181831  70.6132309  87.9982387  46.1008495  71.4382599  89.0683670
  54.9948704  83.1289833  92.6902266  54.8473666  82.2006540  92.8709836
  55.8202197  83.1509923  92.2059341  48.8610948  71.7807900  88.5482758
  49.2007020  72.3093821  87.8261367  49.3083068  72.1188306  89.3241325
  58.5982825  83.9518391  93.7767139  59.5229373  83.7461253  93.6391590
  58.4298129  83.7034792  94.6856480  51.5554389  70.1644950  97.9985826
  51.2151209  69.3652763  98.4006506  50.8493395  70.4646661  97.4262660
  52.2070861  67.2494263  96.4513149  53.0296930  66.7754741  96.3292040
  52.4508924  68.0284747  96.9511836  50.8479095  70.2782521  86.7476051
  51.5687458  70.6563774  86.2439768  50.2244399  70.9971398  86.8511029
  54.9910218  70.9827670  87.6834383  55.2073832  71.8652308  87.3823212
  54.5104285  70.5913884  86.9540025  49.7309439  73.9413383  94.2605128
  49.5854020  74.2553686  95.1529409  49.2534643  74.5598284  93.7076027
  51.5905822  70.9315931  94.3086018  51.5767391  70.0357025  93.9718315
  52.3078250  70.9386595  94.9424304  53.4431953  71.3653272  96.3539145
  53.1849731  72.2870342  96.3523475  52.9116993  70.9683706  97.0439609
  58.3878142  84.4704059  89.1329230  58.5615019  83.9050481  88.3803083
  58.8807033  85.2704954  88.9508720  44.2055101  76.4818728  97.1992789
  43.6608570  77.2578536  97.3313063  45.0834451  76.8289532  97.0411911
  50.9942718  69.8130312  89.5773588  51.1158629  68.8846958  89.7764475
  50.7044761  69.8268998  88.6651903  53.8633909  67.4985222  92.7140307
  53.8855605  67.5624555  91.7592287  54.2801968  66.6589731  92.9080814
  64.2417533  77.2340482  90.7519530  64.6848679  76.4847807  90.3538653
  63.3644043  77.2250618  90.3693262  59.3753314  83.7870823  86.2326129
  60.0704219  84.4077516  86.4513443  59.7176464  82.9366174  86.5078506
  44.9921123  75.6088624 100.0922946  44.2502859  75.7571259 100.6787576
  44.6713868  75.8696890  99.2289695  61.2744737  81.2370529  87.7613459
  61.7996061  81.5757801  87.0362779  61.1867090  80.3017544  87.5776594
  52.9364786  85.1504602  99.8903336  53.2451912  84.9053749 100.7626036
  53.7340268  85.3551241  99.4022206  52.9585398  87.3042512  92.1208713
  52.5190388  86.8118891  92.8141569  53.7093515  86.7615480  91.8800788
  45.4377737  83.4954053  92.1233341  46.2635757  83.1957825  91.7431984
  45.0871789  82.7261675  92.5723129  50.4059270  82.8480521  94.1931014
  49.7839279  82.1851226  93.8933242  51.0764137  82.8741653  93.5104662
  43.6386342  81.4140379  93.0822274  42.8018250  80.9862554  92.9006275
  43.6109988  81.6072823  94.0193065  50.4783798  71.3262309 103.7863520
  50.5271953  72.2024432 103.4041290  51.0206312  70.7839702 103.2135163
  61.0836518  78.7195899 100.3797386  61.1334523  78.5545906 101.3212909
  60.9750442  77.8523158  99.9895267  49.9672777  81.3984444  87.6689475
  50.1160897  82.0819909  87.0156148  50.7739221  81.3789534  88.1838931
  58.3740281  74.7026827 101.6956693  59.2750144  74.5633292 101.4040690
  58.4488255  74.8681282 102.6354870  52.7083086  72.0793681 100.5409879
  51.8386396  72.3727248 100.2692467  52.9442566  72.6634126 101.2617143
  63.7850398  78.7045720  93.1441978  64.6197289  79.1435524  93.3079538
  63.9209526  78.2284373  92.3250223  60.8341903  76.2625455  99.0919465
  61.3096025  76.4553101  98.2838317  59.9107469  76.3184641  98.8462849
  47.7225410  77.4249622  88.6750544  47.4771452  76.5211952  88.8730754
  47.8921325  77.4266772  87.7330022  55.4122120  68.2973298  98.0575299
  55.9304064  69.0334325  97.7321788  55.0577253  68.6037292  98.8922058
  46.9921058  73.1577980  86.1736705  46.2990303  73.2322335  85.5176741
  46.7472810  72.3938323  86.6958222  55.6634714  64.7173581  93.5776196
  55.9436468  64.0496770  94.2036622  56.4485321  64.9102677  93.0650860
  53.4668183  83.8932575  85.1401222  52.8942150  84.5122762  84.6871694
  54.0400976  84.4431937  85.6741144  59.5343572  73.1391215  97.3247771
  60.4860995  73.2389313  97.3459995  59.3647023  72.3469483  97.8345855
  57.5557952  70.2246798  97.5107172  56.9607884  70.5051811  96.8153661
  57.2707649  70.7140699  98.2823913  56.6865442  84.1769725  86.2709804
  57.6196116  84.1115287  86.4742680  56.5988655  85.0125992  85.8124337
  59.3153459  83.4935595  83.2313752  59.2367091  83.1595459  84.1249510
  60.1363126  83.9857363  83.2305224  62.0131650  76.3597335  96.4390071
  61.9807970  75.4213335  96.6249754  62.6232274  76.4381371  95.7055896
  53.8514981  75.2293388  82.4817275  54.7974086  75.0999596  82.5505693
  53.4729226  74.4908049  82.9586703  62.1626139  73.1508378  96.4848354
  61.6465187  72.3666835  96.2978283  63.0466087  72.8227095  96.6494873
  59.8236866  66.8949394  92.4444167  59.6261687  66.5864482  93.3287498
  60.4336571  67.6211033  92.5742096  67.8308200  77.4213341  95.5796107
  68.5611589  77.1598630  96.1403811  67.2215146  76.6842063  95.6198175
  65.9123497  75.5621204  96.1770559  65.1856661  75.4277169  95.5687050
  65.4970784  75.8698033  96.9827277  52.0357898  73.1543364  82.4172160
  51.1289354  72.8576477  82.4934874  52.3133879  72.8573182  81.5506446
  42.9535839  74.4749727  92.8671206  42.6338623  73.6215036  92.5745580
  42.4069267  74.6898306  93.6229174  46.7315746  77.1912168  96.5840713
  46.9501756  78.1229276  96.6028747  47.1441520  76.8320143  97.3695517
  53.6519964  67.6980254  88.5716401  52.8420692  67.3527339  88.9471647
  54.3404381  67.3887797  89.1604013  55.5810512  66.7758300  90.1940698
  56.1341551  67.1953754  90.8530721  55.8180599  65.8494049  90.2363654
  51.6043612  72.7645374 105.9743462  51.5040338  73.7139731 105.9055553
  51.3865154  72.4363613 105.1019532  50.8056683  70.0130299  82.5584139
  51.6675847  70.3385197  82.8179956  50.9907027  69.2261795  82.0457205
  42.8224099  78.0952639  94.8364328  42.1287570  77.6806592  94.3234282
  43.5697090  78.1373175  94.2397747  58.9589319  68.8858826  89.7019362
  58.3787988  69.5443630  89.3197415  58.6925252  68.0636170  89.2906780
  57.4092886  68.2863883  91.9040682  57.9092664  68.3980418  91.0955001
  58.0528494  67.9824936  92.5441491  51.4674882  76.1942513 104.7908523
  50.9841963  76.9942873 104.9972412  51.5535821  76.2050458 103.8375967
  44.7360841  78.0270893  92.7130343  44.7131529  78.1258580  91.7612226
  45.0461478  78.8736043  93.0347509  47.3948219  80.0847048  96.8276957
  48.3491473  80.0530990  96.7606889  47.1960743  79.6237671  97.6427183
  47.9847601  78.6548164  99.3947755  48.8040490  79.1492242  99.4182592
  48.2584409  77.7380132  99.3665322  57.7414197  71.0458916  88.7575710
  56.8540052  71.3308567  88.5395905  58.1568186  70.8852679  87.9102987
  61.0928734  71.0705437  92.4730050  61.8689124  71.5601889  92.7454666
  60.3676868  71.4963491  92.9301919  63.5301292  71.7833056  93.5303990
  64.1245783  71.5428792  92.8197298  63.6027876  71.0640187  94.1577527
  45.7498448  85.6266667  93.8447155  45.6152916  84.8667068  93.2785153
  45.3330510  86.3507567  93.3775944  56.8857411  80.8103591  82.8523730
  57.5893261  81.0153593  83.4681386  56.1620060  81.3780353  83.1172814
  57.7155221  76.5613452  88.9726001  57.6590423  77.0182003  88.1333633
  58.2683564  75.8004137  88.7948843  61.5260027  72.3503184  89.7976120
  61.2696961  71.9499819  90.6284328  60.9012895  73.0646978  89.6726259
  65.8372365  75.0899257  92.3047411  65.2771923  75.1592446  93.0778973
  65.2315868  74.9140242  91.5846908  48.9067574  86.5235984  94.0565598
  48.7899958  87.4681417  93.9544288  48.0860020  86.2209546  94.4451397
  58.7944108  81.2486120  84.9022190  59.6289712  80.8167318  84.7199665
  58.6328451  81.0768134  85.8299085  58.4490000  77.7518233  86.2678530
  58.3938804  77.5862505  85.3266974  57.8236056  78.4594266  86.4240719
  43.2382515  72.9886298 100.0939952  43.8841379  72.4785252 100.5827177
  43.0299667  73.7254979 100.6683377  51.7586126  67.2526342  85.8463848
  51.7464796  68.1968182  86.0032119  52.6509548  67.0696488  85.5523309
  49.9322088  87.1764246  97.2721526  50.8349335  87.2087856  97.5888021
  49.7059458  86.2464697  97.2867862  51.6875690  85.9295233  93.9331605
  50.7371321  85.9297094  93.8195977  51.9908176  85.1827967  93.4167639
  55.5738245  63.8469119  90.1009785  54.8070641  63.2927606  90.2466467
  55.9848950  63.9190988  90.9623937  47.5780006  70.1353915 104.1914966
  48.4411468  69.7790720 104.4018291  47.0045417  69.7967809 104.8790370
  60.0904905  93.5718676  90.9235783  59.5269770  93.4808612  90.1552071
  59.9757300  92.7518580  91.4038275  65.6704464  97.2389643  86.2350248
  65.0192444  97.8243724  85.8484261  66.4648827  97.7695838  86.2945285
  59.5960091  94.3278780  86.6337382  60.3690967  93.7807767  86.4950258
  59.9485490  95.1923030  86.8451843  61.9326369  90.4871446  84.2655832
  62.1851890  89.9652968  83.5039295  60.9950928  90.3237592  84.3682516
  67.1479729  94.9280075  86.7719232  66.5125562  95.0014702  87.4840137
  66.8177136  95.5173674  86.0938311  61.6522658  92.3899552  86.4680207
  61.5358916  91.7144456  87.1361291  61.7624918  91.9031926  85.6512360
  63.9954199  91.8509700  90.1726896  63.6312406  91.3240321  90.8839818
  64.8521315  91.4608169  89.9993382  63.6359686  86.8799599  85.1688245
  63.8034088  87.7479836  85.5358716  63.4456855  87.0426881  84.2449534
  59.8447500  91.7930375  92.8690779  58.9197997  91.6606589  93.0768471
  60.0931914  92.5724594  93.3660722  63.6148907  89.3357257  86.1534912
  63.4948532  89.7814308  86.9920392  62.9201495  89.6842574  85.5948450
  57.2056311  91.4363649  93.7034569  57.3348693  91.6898127  94.6173980
  56.5253763  92.0291357  93.3839224  69.3133973  89.8078730  86.9815246
  70.2251829  90.0406117  86.8062943  68.8043620  90.3915774  86.4190324
  62.4100403  90.6502109  88.4468477  63.1124446  91.1023153  88.9142404
  62.0781031  90.0085928  89.0748370  56.1525737  88.9085661  93.7485611
  55.3624791  89.1643190  93.2725721  56.6436984  89.7233999  93.8537651
  58.1040482  89.2730241  90.7069088  57.3071646  89.3848935  91.2252583
  57.8766074  89.6116893  89.8409978  54.4363440  89.1616152  96.1800602
  54.6871478  90.0463162  96.4458178  54.9722988  88.9820753  95.4075693
  63.6494168  97.4643051  88.5230582  63.5139842  98.3094587  88.9515430
  64.1903980  97.6662329  87.7596516  57.1023565  94.9818489  89.0958508
  57.6148086  95.7761740  89.2464072  57.7546278  94.2844780  89.0292109
  66.9986631  80.9873613  97.0529476  66.6550901  81.8775255  96.9768587
  67.3665594  80.7975271  96.1899061  55.0672482  93.3107144  89.8718078
  55.9047704  93.7204152  89.6551786  55.2450749  92.3706586  89.8418272
  66.9636914  90.9782224  85.5601911  66.4483537  91.7486829  85.7990298
  66.6914222  90.3047361  86.1834972  64.5484025  85.8231925  90.6187149
  63.6925621  85.4338776  90.4392788  64.9610977  85.9023886  89.7586935
  66.0783172  83.3578269  95.0178709  65.5747967  83.3208404  94.2046514
  66.3713778  84.2671011  95.0775366  62.3226057  83.4416998  94.0244891
  63.1879054  83.2459807  93.6650780  62.3903566  83.2127350  94.9514248
  71.9371188  93.7314579  87.4955085  71.1600631  93.3925739  87.0510247
  72.6162669  93.7367202  86.8210050  66.7523217  88.8509317  87.3861692
  66.4473353  89.1655466  88.2371835  67.7053659  88.9290736  87.4289025
  65.1969649  95.0099540  89.0354646  64.6691010  94.2752299  88.7227884
  64.6957152  95.7874216  88.7894615  59.9288376  85.6719206  91.3961258
  60.5032128  85.4494388  90.6634451  60.5159359  85.7407901  92.1489859
  60.2557964  87.7023667  85.4157143  59.4195276  88.0398354  85.7366418
  60.1162733  87.5672647  84.4784280  62.2311044  82.5460455  90.1236327
  61.5775457  82.2309472  89.4992942  62.1891518  81.9236196  90.8496150
  63.3422249  92.8279750  82.0389619  62.4349311  92.5969004  82.2380768
  63.8393281  92.0317369  82.2263601  66.2490328 101.5377257  84.9586305
  65.5752027 101.8408954  85.5671263  66.6356150 102.3406338  84.6091762
  66.2483832  90.4333804  89.5786655  66.9955651  90.9455201  89.2693777
  66.5175422  90.1117857  90.4391049  64.5210483  92.9292345  86.5613609
  63.6121702  92.6451378  86.6586079  64.5505566  93.3491424  85.7016916
  68.6962669  87.4690921  91.5605444  67.9585426  86.9568307  91.8915687
  68.9489443  87.0291302  90.7488721  68.7974297  80.2467173  92.1547214
  69.1033174  79.3864536  91.8673129  69.5226902  80.8384793  91.9546208
  55.0898653  90.6497859  90.5428812  54.8923053  90.0567220  89.8179878
  54.5345317  90.3450069  91.2604750  63.0695377  90.5420966  92.6623405
  63.1243986  89.5894802  92.5865881  62.2586579  90.6980405  93.1464703
  64.2186570  94.4701089  83.9001688  63.7806000  93.7536948  83.4407325
  64.9597011  94.6977203  83.3386779  61.0087736  89.1598025  90.4213784
  60.1955602  89.4592196  90.8278976  61.5046731  88.7653714  91.1388266
  60.5001811  86.7316381  96.0375019  61.1401191  86.5905140  95.3397982
  59.6679342  86.4450894  95.6613620  57.5844879  90.1761893  88.2269764
  56.6542467  90.1146349  88.4439726  57.6802351  89.6537846  87.4306405
  57.5030428  86.7016706  90.8148005  57.7637245  87.6162039  90.7057166
  58.3247600  86.2341148  90.9644618  68.3397798  93.3285470  83.4933745
  67.7226969  92.6032298  83.3966798  67.8714286  94.0894831  83.1500820
  60.1296344  87.5470895  82.6155050  59.2525810  87.4259695  82.2517296
  60.6054097  86.7556973  82.3633938  51.6498484  92.3348054  92.7096557
  52.3369524  92.0209784  92.1217572  51.4946613  93.2389419  92.4363808
  56.4533206  87.2238251  97.1381581  56.3691395  86.6163920  96.4031991
  55.6315913  87.7147269  97.1391077  66.6256920  85.7091814  92.5051776
  67.1225620  84.9561777  92.1852846  65.8543901  85.7456131  91.9394985
  63.2091889  87.8509197  92.2323460  62.8389676  87.2980238  92.9204366
  63.7050981  87.2467331  91.6798460  69.0675915  82.6761408  94.6531135
  68.1538995  82.9065635  94.8213341  69.4969016  82.7599852  95.5045167
  51.2266460  90.4148648  94.9814024  51.2650560  89.8812238  95.7751142
  50.7206753  89.8883853  94.3625001  58.6057222  85.2613188  98.4776566
  58.6698549  86.1228019  98.0653964  58.5424343  84.6487190  97.7448925
  54.8575038  89.1412750  88.0567955  55.1528479  88.2323428  88.0035009
  53.9563073  89.1200489  87.7348958  58.3869285  87.2168746  94.0395504
  57.6655870  87.8304714  93.9002977  59.1762540  87.7526511  93.9612150
  56.5862879  86.8226848  88.1807281  56.2575585  85.9424226  87.9982387
  56.9402250  86.7674516  89.0683670  59.7004702  87.1099817  88.5482758
  60.0400775  87.6385739  87.8261367  60.1476823  87.4480223  89.3241325
  63.0464615  82.5786180  96.4513149  63.8690684  82.1046659  96.3292040
  63.2902679  83.3576664  96.9511836  61.6872850  85.6074439  86.7476051
  62.4081212  85.9855692  86.2439768  61.0638154  86.3263316  86.8511029
  65.8303972  86.3119588  87.6834383  66.0467587  87.1944226  87.3823212
  65.3498040  85.9205801  86.9540025  60.5703194  89.2705301  94.2605128
  60.4247775  89.5845604  95.1529409  60.0928397  89.8890201  93.7076027
  62.4299577  86.2607849  94.3086018  62.4161145  85.3648942  93.9718315
  63.1472005  86.2678513  94.9424304  61.8336473  85.1422229  89.5773588
  61.9552384  84.2138876  89.7764475  61.5438515  85.1560915  88.6651903
  64.7027663  82.8277140  92.7140307  64.7249360  82.8916473  91.7592287
  65.1195722  81.9881648  92.9080814  60.8066532  96.7276362  87.6689475
  60.9554652  97.4111826  87.0156148  61.6132975  96.7081452  88.1838931
  58.5619165  92.7541540  88.6750544  58.3165207  91.8503870  88.8730754
  58.7315079  92.7558690  87.7330022  57.8314812  88.4869897  86.1736705
  57.1384057  88.5614252  85.5176741  57.5866564  87.7230241  86.6958222
  66.5028469  80.0465499  93.5776196  66.7830222  79.3788688  94.2036622
  67.2879076  80.2394594  93.0650860  64.3061937  99.2224492  85.1401222
  63.7335904  99.8414680  84.6871694  64.8794731  99.7723854  85.6741144
  70.1547214  98.8227513  83.2313752  70.0760845  98.4887377  84.1249510
  70.9756880  99.3149281  83.2305224  64.6908736  90.5585305  82.4817275
  65.6367840  90.4291513  82.5505693  64.3122981  89.8199967  82.9586703
  70.6630620  82.2241311  92.4444167  70.4655441  81.9156399  93.3287498
  71.2730326  82.9502950  92.5742096  62.8751653  88.4835282  82.4172160
  61.9683108  88.1868394  82.4934874  63.1527634  88.1865100  81.5506446
  53.7929593  89.8041645  92.8671206  53.4732377  88.9506953  92.5745580
  53.2463021  90.0190223  93.6229174  64.4913718  83.0272171  88.5716401
  63.6814447  82.6819256  88.9471647  65.1798135  82.7179715  89.1604013
  66.4204267  82.1050218  90.1940698  66.9735305  82.5245672  90.8530721
  66.6574353  81.1785966  90.2363654  61.6450437  85.3422217  82.5584139
  62.5069601  85.6677115  82.8179956  61.8300782  84.5553713  82.0457205
  53.6617853  93.4244557  94.8364328  52.9681325  93.0098509  94.3234282
  54.4090844  93.4665093  94.2397747  69.7983074  84.2150743  89.7019362
  69.2181743  84.8735547  89.3197415  69.5319007  83.3928088  89.2906780
  68.2486640  83.6155801  91.9040682  68.7486419  83.7272336  91.0955001
  68.8922248  83.3116854  92.5441491  55.5754596  93.3562810  92.7130343
  55.5525284  93.4550498  91.7612226  55.8855232  94.2027961  93.0347509
  68.5807952  86.3750834  88.7575710  67.6933807  86.6600484  88.5395905
  68.9961941  86.2144597  87.9102987  67.7251165  96.1395508  82.8523730
  68.4287015  96.3445511  83.4681386  67.0013814  96.7072270  83.1172814
  68.5548976  91.8905370  88.9726001  68.4984177  92.3473921  88.1333633
  69.1077318  91.1296054  88.7948843  72.3653782  87.6795101  89.7976120
  72.1090716  87.2791737  90.6284328  71.7406650  88.3938895  89.6726259
  69.6337863  96.5778038  84.9022190  70.4683467  96.1459236  84.7199665
  69.4722206  96.4060051  85.8299085  69.2883755  93.0810151  86.2678530
  69.2332559  92.9154422  85.3266974  68.6629810  93.7886184  86.4240719
  62.5979880  82.5818260  85.8463848  62.5858550  83.5260100  86.0032119
  63.4903302  82.3988405  85.5523309  66.4132000  79.1761037  90.1009785
  65.6464396  78.6219523  90.2466467  66.8242705  79.2482905  90.9623937
  70.9690098 102.8762812  82.6155050  70.0919565 102.7551613  82.2517296
  71.4447851 102.0848891  82.3633938  72.4844192 100.6714135  82.5584139
  73.3463356 100.9969033  82.8179956  72.6694536  99.8845630  82.0457205
  22.3129447  12.9284095  72.9595554  21.6617427  13.5138176  72.5729568
  23.1073810  13.4590290  73.0190592  16.2385075  10.0173232  73.3582689
  17.0115951   9.4702219  73.2195565  16.5910473  10.8817482  73.5697150
  18.5751352   6.1765898  70.9901139  18.8276873   5.6547420  70.2284602
  17.6375911   6.0132044  71.0927822  23.7904713  10.6174527  73.4964539
  23.1550545  10.6909154  74.2085443  23.4602119  11.2068126  72.8183618
  29.0203062   5.1176910  79.7008860  29.7528234   4.5476127  79.9346690
  28.2642418   4.7298510  80.1415366  18.2947641   8.0794004  73.1925514
  18.1783899   7.4038908  73.8606598  18.4049901   7.5926378  72.3757667
  20.6379182   7.5404151  76.8972203  20.2737389   7.0134772  77.6085124
  21.4946298   7.1502621  76.7238688  20.2784669   2.5694051  71.8933551
  20.4459071   3.4374288  72.2604022  20.0881838   2.7321333  70.9694841
  20.2573890   5.0251709  72.8780218  20.1373515   5.4708759  73.7165698
  19.5626478   5.3737026  72.3193756  18.0180782  17.7955350  76.5270349
  17.9404812  18.7463175  76.6058830  17.4142426  17.4501223  77.1845276
  25.9558956   5.4973182  73.7060552  26.8676812   5.7300569  73.5308250
  25.4468603   6.0810226  73.1435631  24.5628538  10.4799000  81.0974134
  23.9337401  10.6444714  80.3950202  24.1754200  10.8940610  81.8685098
  28.4417770  11.4153438  78.4518497  27.7568808  11.7952339  77.9015531
  28.5261620  12.0248765  79.1850445  20.1156500  10.2173408  78.3624219
  20.5794846  10.4961111  77.5728841  19.8513298   9.3156853  78.1797309
  19.0525386   6.3396561  75.1713784  19.7549430   6.7917604  75.6387710
  18.7206015   5.6980380  75.7993677  34.9020523   8.2824101  79.5721170
  34.1484231   7.7131499  79.4165174  35.0368064   8.2486766  80.5191804
  20.2919151  13.1537503  75.2475889  20.1564826  13.9989039  75.6760737
  20.8328963  13.3556781  74.4841823  13.7448548  10.6712941  75.8203814
  14.2573069  11.4656192  75.9709379  14.3971261   9.9739232  75.7537416
  15.5543433  13.7878698  77.9026567  15.7310061  14.7096662  77.7147551
  16.3500266  13.4737117  78.3320947  23.6061897   6.6676676  72.2847218
  23.0908521   7.4381281  72.5235605  23.3339206   5.9941812  72.9080279
  28.5796171   9.4209031  74.2200391  27.8025614   9.0820190  73.7755553
  29.2587652   9.4261654  73.5455356  23.3948200   4.5403768  74.1106999
  23.0898336   4.8549918  74.9617142  24.3478642   4.6185188  74.1534332
  21.8394632  10.6993992  75.7599953  21.3115994   9.9646751  75.4473190
  21.3382135  11.4768668  75.5139921  26.8187478   8.8943012  80.8766999
  26.1611153   9.5842274  80.9647128  27.6227877   9.2839444  81.2200986
  25.6292937   7.2487385  78.9270941  26.1424819   7.8817377  79.4292651
  26.2794161   6.6488580  78.5614301  19.9847232   8.5174202  68.7634926
  19.0774294   8.2863455  68.9626075  20.4818264   7.7211821  68.9508907
  22.8915311  17.2271709  71.6831612  22.2177010  17.5303406  72.2916570
  23.2781133  18.0300790  71.3337069  22.8908816   6.1228256  76.3031962
  23.6380635   6.6349653  75.9939084  23.1600405   5.8012309  77.1636355
  21.1635466   8.6186797  73.2858916  20.2546685   8.3345830  73.3831386
  21.1930550   9.0385875  72.4262223  26.3954733  12.2293386  77.0550084
  25.9417060  11.3884296  77.1115274  25.7648700  12.8654785  77.3924864
  24.8387672  14.0669883  77.9899902  25.1310647  14.6274940  77.2712267
  25.3486293  14.3598444  78.7453061  20.8611554  10.1595541  70.6246995
  20.4230984   9.4431399  70.1652632  21.6021994  10.3871655  70.0632086
  19.8021298  14.8450234  79.0793355  19.7597476  15.0711080  78.1501887
  20.7183997  14.6113609  79.2279156  28.9784668   8.4352738  76.6823313
  28.8402567   8.6254334  75.7544502  28.6220887   9.1972120  77.1391364
  29.0054048  10.5029265  81.6934585  29.4390555  10.4104554  82.5417639
  29.7185629  10.4786765  81.0554601  17.9187098  11.7213263  78.8755318
  18.7127697  11.2263583  78.6737893  17.2078791  11.1931126  78.5123023
  21.0906526  17.3951382  73.8978691  21.2658282  16.9239425  74.7124314
  20.4039314  18.0217148  74.1259952  22.0463590  11.6723888  79.9441992
  21.7113422  11.6324658  80.8399642  21.5467535  11.0068604  79.4712403
  24.9822781   9.0179922  70.2179052  24.3651952   8.2926750  70.1212105
  24.5139270   9.7789282  69.8746126  15.6567612  20.5440744  80.6718551
  15.8964210  21.1759269  81.3497570  14.8136808  20.1928784  80.9583911
  20.1695474  16.3519867  83.0760055  20.0965645  17.1574838  83.5879360
  19.7272867  16.5511833  82.2508077  19.9585253  15.5891637  76.5862877
  19.1752775  16.1313317  76.6801101  20.6577998  16.1065617  76.9857118
  31.1211661   7.1026632  80.8715374  31.1101537   7.9851347  80.5009307
  30.2529040   6.7498183  80.6769911  24.3511684  10.1557954  76.8035506
  23.4167963  10.2759416  76.6340210  24.5288352   9.2530420  76.5395516
  27.7384235   5.9975273  77.3385540  28.2044688   6.8303264  77.2645843
  28.1891736   5.5320254  78.0430798  25.8060466  12.3419094  74.3371692
  26.0820310  12.2275689  75.2465566  24.9364965  11.9436579  74.2983865
  22.4414530  16.5905445  77.9804506  22.6236925  15.7727101  78.4432258
  23.2647516  16.8073137  77.5429395  22.7756696  15.5173630  75.2419554
  23.3044462  15.0066085  74.6289716  23.0384916  15.2016160  76.1065087
  16.1312444  16.5688747  78.0017330  15.4622819  17.0534874  77.5181370
  15.9925314  16.8157967  78.9160708  20.2717712  18.6032490  84.5999988
  20.8236020  18.7664112  85.3649074  20.6123906  19.1936928  83.9280013
  23.4086100  16.5514466  81.5863670  23.2837239  15.7504206  81.0774616
  24.0665191  17.0460659  81.0977640  25.4721008  14.3523486  83.2143221
  24.5251344  14.2328837  83.1421547  25.8203781  13.4645984  83.2969482
  22.4767441  14.1476202  79.4147573  22.3292404  13.2192910  79.5955143
  23.3020935  14.1696293  78.9304648  26.0801563  14.9704761  80.5012446
  27.0048111  14.7647622  80.3636897  25.9116867  14.7221162  81.4101787
  22.4728956   2.0014040  74.4079690  22.6892570   2.8838678  74.1068518
  21.9923023   1.6100253  73.6785332  25.8696879  15.4890428  75.8574537
  26.0433757  14.9236851  75.1048389  26.3625771  16.2891323  75.6754027
  31.7236271   8.2526851  77.4764837  32.1667417   7.5034176  77.0783960
  30.8462781   8.2436988  77.0938569  26.8572052  14.8057193  72.9571435
  27.5522957  15.4263885  73.1758750  27.1995202  13.9552544  73.2323813
  28.7563475  12.2556898  74.4858766  29.2814799  12.5944171  73.7608086
  28.6685828  11.3203914  74.3021901  20.4404136  18.3228882  78.8454019
  20.0009126  17.8305260  79.5386876  21.1912253  17.7801849  78.6046094
  17.8878008  13.8666891  80.9176321  17.2658017  13.2037596  80.6178549
  18.5582875  13.8928022  80.2349969  17.4491515  12.4170814  74.3934781
  17.5979635  13.1006278  73.7401454  18.2557958  12.3975904  74.9084237
  31.2669135   9.7232090  79.8687284  32.1016027  10.1621894  80.0324845
  31.4028264   9.2470743  79.0495530  15.2044148   8.4435992  75.3995850
  14.9590190   7.5398322  75.5976060  15.3740062   8.4453142  74.4575328
  20.9486920  14.9118944  71.8646529  20.3760888  15.5309132  71.4117001
  21.5219714  15.4618306  72.3986451  24.1684180  15.1956095  72.9955111
  25.1014853  15.1301656  73.1987987  24.0807393  16.0312361  72.5369644
  26.7972197  14.5121965  69.9559059  26.7185828  14.1781828  70.8494817
  27.6181864  15.0043733  69.9550531  21.3333719   6.2479757  69.2062581
  22.2792824   6.1185965  69.2750999  20.9547964   5.5094419  69.6832010
  35.3126938   8.4399711  82.3041414  36.0430326   8.1784999  82.8649117
  34.7033883   7.7028433  82.3443482  19.5176636   4.1729734  69.1417467
  18.6108091   3.8762846  69.2180180  19.7952617   3.8759552  68.2751753
  26.4408057  -0.0954805  76.4264669  25.8606726   0.5629999  76.0442721
  26.1743990  -0.9177460  76.0152086  25.2232935   2.0645286  75.4821017
  24.3358790   2.3494936  75.2641212  25.6386924   1.9039049  74.6348294
  13.2317186  16.6453037  80.5692462  13.0971654  15.8853438  80.0030460
  12.8149248  17.3693937  80.1021251  24.3676149  11.8289960  69.5769037
  25.0711999  12.0339963  70.1926693  23.6438797  12.3966722  69.8418121
  25.1973959   7.5799822  75.6971307  25.1409160   8.0368373  74.8578940
  25.7502301   6.8190506  75.5194150  29.0078765   3.3689553  76.5221427
  28.7515699   2.9686189  77.3529634  28.3831633   4.0833347  76.3971566
  33.3191103   6.1085627  79.0292718  32.7590661   6.1778816  79.8024280
  32.7134606   5.9326611  78.3092214  16.3886312  17.5422354  80.7810904
  16.2718696  18.4867786  80.6789595  15.5678758  17.2395915  81.1696704
  26.2762846  12.2672489  71.6267497  27.1108450  11.8353688  71.4444972
  26.1147189  12.0954503  72.5544392  25.9308738   8.7704603  72.9923836
  25.8757542   8.6048874  72.0512280  25.3054794   9.4780636  73.1486026
  19.1694428  16.9481602  80.6576911  18.2190059  16.9483464  80.5441284
  19.4726914  16.2014337  80.1412946  34.9047121  22.7842141  81.7222674
  35.5425531  22.6648888  81.0186014  34.7867964  23.7322985  81.7810626
  31.7136827  22.7369569  81.6584199  31.3755339  22.6210633  80.7704733
  32.5826596  22.3360734  81.6385205  27.5723643  24.5905045  77.6481089
  27.0088508  24.4994982  76.8797377  27.4576038  23.7704950  78.1283582
  32.1956610  23.8904420  87.6170404  32.1845251  23.4957219  86.7450908
  32.3577250  23.1570493  88.2104175  25.1188075  26.0856237  80.4865310
  25.9109367  25.7447061  80.0711609  25.3584725  26.1951212  81.4067463
  33.1523202  28.2576013  72.9595554  32.5011182  28.8430093  72.5729568
  33.9467565  28.7882208  73.0190592  27.0778829  25.3465150  73.3582689
  27.8509705  24.7994137  73.2195565  27.4304228  26.2109399  73.5697150
  28.9163872  26.6741532  86.5649588  28.6253738  27.5787163  86.4496254
  29.5520856  26.7158060  87.2793658  29.8420078  24.0518381  83.1550948
  30.4383651  23.8274403  82.4407911  29.8995050  23.3103126  83.7576396
  29.4145107  21.5057816  70.9901139  29.6670628  20.9839337  70.2284602
  28.4769666  21.3423962  71.0927822  34.4588390  20.5093594  78.7975882
  35.2451479  20.0913018  78.4466299  34.7227094  21.4139687  78.9657530
  34.6298467  25.9466445  73.4964539  33.9944300  26.0201071  74.2085443
  34.2995873  26.5360044  72.8183618  39.8596817  20.4468828  79.7008860
  40.5921989  19.8768044  79.9346690  39.1036172  20.0590428  80.1415366
  29.1341396  23.4085922  73.1925514  29.0177654  22.7330825  73.8606598
  29.2443655  22.9218296  72.3757667  31.4772936  22.8696069  76.8972203
  31.1131144  22.3426690  77.6085124  32.3340052  22.4794538  76.7238688
  37.3822237  14.1590402  84.1603469  37.0505562  15.0285813  83.9364684
  36.7867851  13.8426686  84.8397499  31.1178423  17.8985969  71.8933551
  31.2852826  18.7666205  72.2604022  30.9275593  18.0613251  70.9694841
  33.8753757  26.3602948  83.5599382  33.5754480  27.2627987  83.4515189
  33.5304816  26.0935131  84.4120535  27.3266238  22.8116745  79.5936086
  26.4016735  22.6792959  79.8013778  27.5750651  23.5910964  80.0906029
  37.2750900  18.8785488  81.2396819  36.3667778  18.8100896  80.9455580
  37.2238496  19.3557433  82.0678645  31.0967644  20.3543626  72.8780218
  30.9767270  20.8000677  73.7165698  30.4020233  20.7028944  72.3193756
  24.6875049  22.4550018  80.4279875  24.8167430  22.7084497  81.3419287
  24.0072500  23.0477726  80.1084530  28.8574536  33.1247268  76.5270349
  28.7798566  34.0755093  76.6058830  28.2536180  32.7793141  77.1845276
  31.3491766  20.2975133  89.1831716  30.5725100  20.8569054  89.1734581
  31.9882329  20.7831916  89.7046586  39.1412547  17.0801926  83.0174693
  38.4986927  17.3734459  82.3714488  38.6367475  16.9654847  83.8227890
  36.7952711  20.8265100  73.7060552  37.7070567  21.0592486  73.5308250
  36.2862358  21.4102144  73.1435631  29.6038139  23.1060587  88.7449683
  30.3452823  23.6445631  88.4684507  28.8975124  23.7326876  88.9021235
  35.0793478  25.2489727  87.3421845  35.4876834  24.8072138  86.5976477
  34.3570740  24.6742355  87.5956038  31.4324548  20.1862334  84.7155402
  32.2785743  20.6101748  84.8590051  31.3723186  19.5295958  85.4093965
  35.4022293  25.8090918  81.0974134  34.7731155  25.9736632  80.3950202
  35.0147955  26.2232528  81.8685098  39.2811525  26.7445356  78.4518497
  38.5962563  27.1244257  77.9015531  39.3655374  27.3540682  79.1850445
  34.5823994  17.8466702  86.3736575  34.3384925  18.6008763  85.8370851
  34.8583924  18.2252050  87.2083822  36.5362456  24.3905315  85.0513841
  36.7479352  25.0337075  84.3748222  36.4892205  23.5567631  84.5835771
  34.1388685  17.0023135  81.9550413  33.2773164  17.3004389  82.2467151
  34.1651120  17.2193534  81.0231446  30.9550255  25.5465326  78.3624219
  31.4188600  25.8253029  77.5728841  30.6907053  24.6448771  78.1797309
  27.8474336  25.0936808  81.3003982  28.4175693  25.5224076  80.6621467
  28.4382448  24.8119392  81.9988168  29.8919141  21.6688478  75.1713784
  30.5943184  22.1209522  75.6387710  29.5599769  21.0272297  75.7993677
  23.6344475  19.9272031  80.4730917  22.8443529  20.1829560  79.9971028
  24.1255722  20.7420369  80.5782958  37.6508284  27.2677270  83.2236198
  38.4725728  26.8657458  82.9418880  37.6470687  27.1645504  84.1752314
  25.5859220  20.2916610  77.4314394  24.7890383  20.4035305  77.9497890
  25.3584812  20.6303263  76.5655285  31.4164888  26.8161314  85.3796909
  31.4809320  27.2781721  86.2155081  30.7075812  26.1858678  85.5079219
  21.9182178  20.1802522  82.9045908  22.1690216  21.0649531  83.1703484
  22.4541726  20.0007123  82.1321000  45.7414277  23.6116019  79.5721170
  44.9877986  23.0423417  79.4165174  45.8761819  23.5778683  80.5191804
  31.1312905  28.4829421  75.2475889  30.9958580  29.3280957  75.6760737
  31.6722718  28.6848699  74.4841823  24.5842303  26.0004859  75.8203814
  25.0966823  26.7948109  75.9709379  25.2365016  25.3031150  75.7537416
  26.3937187  29.1170615  77.9026567  26.5703816  30.0388580  77.7147551
  27.1894021  28.8029035  78.3320947  25.6789544  21.1635247  87.7788731
  25.5643059  20.2620504  88.0795829  24.8234062  21.4098944  87.4273547
  32.7581382  29.1052988  89.3776231  32.3145236  28.3189366  89.0597136
  33.4198595  29.2932138  88.7120122  27.5168503  30.6348789  83.9036910
  28.0675928  30.5065852  83.1313904  26.6779979  30.9343678  83.5531803
  34.8562620  29.3855787  87.4057632  34.8381095  30.2064669  86.9137902
  35.7782540  29.2609863  87.6307774  31.3135674  26.8999917  88.2481141
  31.8464011  26.1388205  88.0180449  30.7849755  26.6073569  88.9905295
  34.4805369  12.0059983  83.7774783  34.1369638  12.8961625  83.7013893
  34.8484332  11.8161641  82.9144368  22.5491220  24.3293513  76.5963385
  23.3866442  24.7390522  76.3797092  22.7269487  23.3892956  76.5663579
  34.4455652  21.9968594  72.2847218  33.9302275  22.7673199  72.5235605
  34.1732960  21.3233730  72.9080279  32.0302763  16.8418295  77.3432456
  31.1744359  16.4525145  77.1638095  32.4429714  16.9210256  76.4832242
  33.5601909  14.3764638  81.7424016  33.0566705  14.3394773  80.9291821
  33.8532516  15.2857381  81.8020672  29.8044795  14.4603368  80.7490198
  30.6697792  14.2646176  80.3896087  29.8722304  14.2313720  81.6759554
  39.4189926  24.7500949  74.2200391  38.6419369  24.4112108  73.7755553
  40.0981407  24.7553572  73.5455356  34.2341955  19.8695686  74.1106999
  33.9292090  20.1841835  74.9617142  35.1872397  19.9477106  74.1534332
  32.6788387  26.0285909  75.7599953  32.1509748  25.2938669  75.4473190
  32.1775889  26.8060586  75.5139921  37.6581233  24.2234930  80.8766999
  37.0004907  24.9134191  80.9647128  38.4621632  24.6131362  81.2200986
  27.4107114  16.6905576  78.1206564  27.9850866  16.4680757  77.3879757
  27.9978097  16.7594270  78.8735166  36.4686691  22.5779303  78.9270941
  36.9818573  23.2109294  79.4292651  37.1187915  21.9780498  78.5614301
  27.7376701  18.7210037  72.1402450  26.9014014  19.0584723  72.4611724
  27.5981471  18.5859017  71.2029587  29.7129782  13.5646825  76.8481634
  29.0594194  13.2495842  76.2238249  29.6710256  12.9422565  77.5741457
  30.8240987  23.8466120  68.7634926  29.9168049  23.6155373  68.9626075
  31.3212019  23.0503739  68.9508907  33.7309066  32.5563627  71.6831612
  33.0570764  32.8595324  72.2916570  34.1174888  33.3592707  71.3337069
  32.9467522  20.0528758  81.1729281  32.0290084  20.2743705  81.0150969
  33.3627666  20.1275069  80.3140989  33.7302570  21.4520174  76.3031962
  34.4774389  21.9641571  75.9939084  33.9994160  21.1304227  77.1636355
  32.0029220  23.9478715  73.2858916  31.0940440  23.6637747  73.3831386
  32.0324304  24.3677793  72.4262223  37.2348488  27.5585304  77.0550084
  36.7810815  26.7176214  77.1115274  36.6042454  28.1946702  77.3924864
  36.1781407  18.4877290  78.2850751  35.4404164  17.9754676  78.6160994
  36.4308181  18.0477672  77.4734028  35.6781427  29.3961801  77.9899902
  35.9704401  29.9566858  77.2712267  36.1880048  29.6890362  78.7453061
  36.2793035  11.2653542  78.8792520  36.5851911  10.4050906  78.5918435
  37.0045639  11.8571162  78.6791514  22.5717391  21.6684229  77.2674118
  22.3741790  21.0753589  76.5425185  22.0164055  21.3636439  77.9850057
  30.5514114  21.5607335  79.3868711  30.6062724  20.6081172  79.3111188
  29.7405316  21.7166774  79.8710010  31.7005308  25.4887458  70.6246995
  31.2624738  24.7723317  70.1652632  32.4415749  25.7163573  70.0632086
  28.4906474  20.1784395  77.1459090  27.6774340  20.4778565  77.5524282
  28.9865468  19.7840084  77.8633572  30.6415052  30.1742152  79.0793355
  30.5991231  30.4002998  78.1501887  31.5577751  29.9405526  79.2279156
  34.0880686  20.6426219  85.9773984  34.4430074  20.8697693  86.8368450
  34.7352817  20.9744596  85.3551239  39.8178423  23.7644655  76.6823313
  39.6796321  23.9546251  75.7544502  39.4614642  24.5264038  77.1391364
  27.9820549  17.7502750  82.7620325  28.6219928  17.6091510  82.0643288
  27.1498080  17.4637264  82.3858927  39.8447802  25.8321182  81.6934585
  40.2784309  25.7396471  82.5417639  40.5579383  25.8078683  81.0554601
  28.7580853  27.0505181  78.8755318  29.5521451  26.5555501  78.6737893
  28.0472545  26.5223044  78.5123023  33.5775697  29.4323276  83.2267685
  33.6312720  30.0014213  83.9945401  32.7090479  29.6025161  82.8621722
  25.0663616  21.1948263  74.9515070  24.1361204  21.1332718  75.1685032
  25.1621088  20.6724215  74.1551712  24.9849165  17.7203075  77.5393312
  25.2455983  18.6348409  77.4302472  25.8066338  17.2527518  77.6889925
  26.4574091  19.1340833  84.7092136  27.1297144  18.9258195  84.0604785
  25.6303877  18.9362919  84.2697369  40.7063352  25.8744883  84.2267470
  40.8999242  26.7790693  84.4726745  40.6063970  25.4152302  85.0606055
  32.3599663  15.7602774  86.7257797  31.7127578  16.4592723  86.6322274
  33.1300678  16.1938917  87.0934046  35.7678461  26.0251626  89.8008351
  35.6163967  25.7962177  88.8838434  35.7583140  26.9822227  89.8139696
  32.5363797  23.5983538  84.7854617  33.4655857  23.7494698  84.6123584
  32.1154827  23.6867559  83.9303264  31.3352129  27.6234203  82.5553155
  31.1963215  27.2552987  83.4279093  30.5466725  28.1381842  82.3837112
  31.9300281  32.7243299  73.8978691  32.1052037  32.2531342  74.7124314
  31.2433069  33.3509066  74.1259952  32.8857344  27.0015806  79.9441992
  32.5507177  26.9616576  80.8399642  32.3861290  26.3360521  79.4712403
  26.8601588  22.4083436  85.4694574  26.7221386  21.6763674  86.0706113
  27.7706511  22.3192336  85.1878761  35.8216536  24.3471840  70.2179052
  35.2045706  23.6218668  70.1212105  35.3533024  25.1081200  69.8746126
  29.4883889  22.1203395  84.9578253  30.1983507  21.4796587  84.9164872
  29.4453197  22.3716290  85.8804434  37.4770667  29.0570748  87.8784832
  37.4183214  28.3729968  87.2115416  37.8790186  29.7989738  87.4265458
  28.2012823  19.1068613  86.7773893  27.6650180  18.6559351  87.4295489
  27.6129531  19.2414522  86.0344357  26.4961366  35.8732662  80.6718551
  26.7357964  36.5051186  81.3497570  25.6530563  35.5220702  80.9583911
  27.6115082  18.5657264  69.3400356  26.7344548  18.4446065  68.9762603
  28.0872835  17.7743342  69.0879245  37.4788075  27.0210332  86.1098812
  36.5914853  26.6836254  86.2325211  38.0486626  26.2893363  86.3467578
  19.1317222  23.3534424  79.4341864  19.8188262  23.0396154  78.8462879
  18.9765350  24.2575789  79.1609115  23.9351944  18.2424620  83.8626887
  23.8510133  17.6350290  83.1277297  23.1134650  18.7333639  83.8636384
  31.0089228  31.6811785  83.0760055  30.9359400  32.4866756  83.5879360
  30.5666621  31.8803750  82.2508077  30.7979008  30.9183555  76.5862877
  30.0146530  31.4605235  76.6801101  31.4971753  31.4357534  76.9857118
  34.1075658  16.7278184  79.2297082  34.6044357  15.9748146  78.9098153
  33.3362639  16.7642501  78.6640292  41.9605415  22.4318550  80.8715374
  41.9495291  23.3143265  80.5009307  41.0922795  22.0790100  80.6769911
  33.4687912  31.5798619  85.2318214  34.1815884  32.2146083  85.1594116
  32.9777940  31.6762485  84.4158216  35.1905438  25.4849871  76.8035506
  34.2561717  25.6051334  76.6340210  35.3682107  24.5822338  76.5395516
  30.6910627  18.8695567  78.9568767  30.3208414  18.3166607  79.6449672
  31.1869719  18.2653700  78.4043767  38.5777990  21.3267190  77.3385540
  39.0438442  22.1595182  77.2645843  39.0285490  20.8612172  78.0430798
  28.5199825  29.3293062  86.0523785  29.2209285  29.9629545  86.2053179
  28.0494940  29.6707794  85.2919424  36.6454221  27.6711012  74.3371692
  36.9214065  27.5567606  75.2465566  35.7758720  27.2728497  74.2983865
  36.5494653  13.6947777  81.3776441  35.6357732  13.9252004  81.5458648
  36.9787754  13.7786222  82.2290474  36.3201111  21.8837669  83.8776335
  35.6672561  22.1313577  83.2228788  36.6981491  21.0701808  83.5438813
  33.2808285  31.9197363  77.9804506  33.4630679  31.1019019  78.4432258
  34.1041271  32.1365055  77.5429395  33.6150450  30.8465548  75.2419554
  34.1438217  30.3358002  74.6289716  33.8778670  30.5308078  76.1065087
  32.3688684  22.6257481  90.3642372  31.6929321  22.5251610  91.0344748
  33.1916318  22.4696694  90.8278370  24.1167543  28.8629417  82.9854888
  24.7020980  28.1173105  83.1182792  23.9192382  29.1733374  83.8691551
  26.9706198  31.8980664  78.0017330  26.3016574  32.3826792  77.5181370
  26.8319068  32.1449885  78.9160708  18.7085198  21.4335017  81.7059331
  18.7469297  20.8998608  82.4996449  18.2025491  20.9070223  81.0870308
  31.1111467  33.9324408  84.5999988  31.6629775  34.0956029  85.3649074
  31.4517660  34.5228846  83.9280013  26.0875960  16.2799558  85.2021873
  26.1517287  17.1414389  84.7899271  26.0243080  15.6673559  84.4694232
  35.9622341  28.7585665  90.4548643  36.5062245  29.3715624  89.9603598
  35.3809186  29.3165244  90.9715656  22.3393775  20.1599119  74.7813262
  22.6347217  19.2509798  74.7280316  21.4381811  20.1386859  74.4594264
  34.2479854  31.8806383  81.5863670  34.1230994  31.0796123  81.0774616
  34.9058945  32.3752577  81.0977640  25.8688022  18.2355116  80.7640811
  25.1474608  18.8491084  80.6248284  26.6581278  18.7712881  80.6857457
  36.3114763  29.6815404  83.2143221  35.3645098  29.5620755  83.1421547
  36.6597536  28.7937902  83.2969482  24.0681617  17.8413217  74.9052587
  23.7394323  16.9610596  74.7227693  24.4220988  17.7860886  75.7928976
  33.3161196  29.4768120  79.4147573  33.1686158  28.5484827  79.5955143
  34.1414689  29.4988211  78.9304648  27.1823440  18.1286187  75.2728065
  27.5219513  18.6572108  74.5506673  27.6295561  18.4666593  76.0486631
  36.9195318  30.2996679  80.5012446  37.8441865  30.0939540  80.3636897
  36.7510621  30.0513080  81.4101787  29.8766881  16.5123238  84.7231133
  29.5363701  15.7131051  85.1251813  29.1705887  16.8124948  84.1507966
  30.5283353  13.5972550  83.1758456  31.3509422  13.1233028  83.0537346
  30.7721416  14.3763034  83.6757142  29.1691587  16.6260808  73.4721358
  29.8899950  17.0042061  72.9685075  28.5456891  17.3449685  73.5756336
  33.3122710  17.3305957  74.4079690  33.5286325  18.2130595  74.1068518
  32.8316777  16.9392171  73.6785332  28.0521932  20.2891671  80.9850435
  27.9066512  20.6031974  81.8774716  27.5747135  20.9076571  80.4321333
  29.9118314  17.2794219  81.0331324  29.8979883  16.3835312  80.6963622
  30.6290743  17.2864882  81.6669610  31.7644445  17.7131559  83.0784452
  31.5062223  18.6348630  83.0768782  31.2329486  17.3161993  83.7684916
  36.7090634  30.8182346  75.8574537  36.8827512  30.2528768  75.1048389
  37.2019525  31.6183241  75.6754027  22.5267594  22.8297015  83.9238096
  21.9821062  23.6056823  84.0558370  23.4046944  23.1767820  83.7657217
  29.3155210  16.1608599  76.3018894  29.4371122  15.2325245  76.5009782
  29.0257253  16.1747285  75.3897210  32.1846401  13.8463509  79.4385614
  32.2068098  13.9102842  78.4837594  32.6014460  13.0068018  79.6326120
  42.5630025  23.5818769  77.4764837  43.0061171  22.8326094  77.0783960
  41.6856535  23.5728905  77.0938569  37.6965806  30.1349110  72.9571435
  38.3916711  30.7555803  73.1758750  38.0388957  29.2844462  73.2323813
  23.3133616  21.9566911  86.8168253  22.5715352  22.1049547  87.4032883
  22.9926360  22.2175177  85.9535002  39.5957230  27.5848816  74.4858766
  40.1208554  27.9236089  73.7608086  39.5079582  26.6495831  74.3021901
  31.2577278  31.4982890  86.6148643  31.5664405  31.2532036  87.4871342
  32.0552760  31.7029528  86.1267513  31.2797890  33.6520799  78.8454019
  30.8402881  33.1597178  79.5386876  32.0306007  33.1093767  78.6046094
  23.7590229  29.8432340  78.8478647  24.5848249  29.5436112  78.4677291
  23.4084281  29.0739962  79.2968436  28.7271762  29.1958808  80.9176321
  28.1051772  28.5329513  80.6178549  29.3976629  29.2219940  80.2349969
  21.9598834  27.7618667  79.8067581  21.1230743  27.3340841  79.6251582
  21.9322480  27.9551110  80.7438372  39.2851136  28.2181720  89.7909964
  38.4946679  28.2005858  89.2514463  39.0484490  28.7570013  90.5459001
  39.4049011  25.0674186  87.1042693  39.4547016  24.9024193  88.0458215
  39.2962934  24.2001445  86.7140573  28.2885269  27.7462732  74.3934781
  28.4373390  28.4298196  73.7401454  29.0951713  27.7267822  74.9084237
  36.6952773  21.0505114  88.4201999  37.5962636  20.9111579  88.1285997
  36.7700748  21.2159569  89.3600177  31.0295578  18.4271969  87.2655186
  30.1598888  18.7205535  86.9937774  31.2655059  19.0112414  87.9862449
  40.9067208  27.4871127  87.3484714  40.6152016  27.8501108  88.1848175
  40.2939339  26.7738136  87.1698046  42.1062890  25.0524007  79.8687284
  42.9409781  25.4913811  80.0324845  42.2422019  24.5762660  79.0495530
  39.1554396  22.6103742  85.8164772  39.6308517  22.8031388  85.0083623
  38.2319961  22.6662928  85.5708156  26.0437902  23.7727909  75.3995850
  25.7983944  22.8690239  75.5976060  26.2133817  23.7745060  74.4575328
  33.7334612  14.6451586  84.7820606  34.2516556  15.3812613  84.4567095
  33.3789745  14.9515579  85.6167365  25.3133550  19.5056267  72.8982012
  24.6202795  19.5800622  72.2422048  25.0685302  18.7416610  73.4203529
  33.9847206  11.0651868  80.3021503  34.2648960  10.3975057  80.9281929
  34.7697813  11.2580964  79.7896166  31.7880675  30.2410862  71.8646529
  31.2154642  30.8601049  71.4117001  32.3613469  30.7910224  72.3986451
  37.8556065  19.4869502  84.0493078  38.8073488  19.5867600  84.0705302
  37.6859515  18.6947771  84.5591162  35.8770444  16.5725085  84.2352479
  35.2820376  16.8530098  83.5398967  35.5920141  17.0618986  85.0069220
  35.0077935  30.5248012  72.9955111  35.9408608  30.4593574  73.1987987
  34.9201148  31.3604279  72.5369644  37.6365951  29.8413883  69.9559059
  37.5579583  29.5073746  70.8494817  38.4575618  30.3335650  69.9550531
  40.3344143  22.7075622  83.1635377  40.3020463  21.7691623  83.3495061
  40.9444766  22.7859659  82.4301202  32.1727473  21.5771675  69.2062581
  33.1186578  21.4477883  69.2750999  31.7941718  20.8386337  69.6832010
  40.4838631  19.4986665  83.2093660  39.9677680  18.7145122  83.0223589
  41.3678580  19.1705382  83.3740180  38.1449358  13.2427681  79.1689473
  37.9474179  12.9342769  80.0532805  38.7549064  13.9689320  79.2987403
  46.1520692  23.7691629  82.3041414  46.8824081  23.5076917  82.8649117
  45.5427638  23.0320351  82.3443482  44.2335990  21.9099491  82.9015865
  43.5069153  21.7755456  82.2932357  43.8183276  22.2176320  83.7072583
  32.0566166  25.6289421  90.6663238  32.9769175  25.8068020  90.8603285
  32.0215749  24.6845466  90.5142938  30.3570391  19.5021651  69.1417467
  29.4501846  19.2054764  69.2180180  30.6346372  19.2051469  68.2751753
  21.2748331  20.8228015  79.5916513  20.9551115  19.9693323  79.2990887
  20.7281759  21.0376593  80.3474480  25.0528238  23.5390456  83.3086019
  25.2714248  24.4707563  83.3274053  25.4654012  23.1798430  84.0940823
  31.9732456  14.0458541  75.2961708  31.1633185  13.7005626  75.6716954
  32.6616873  13.7366085  75.8849319  33.9023005  13.1236588  76.9186004
  34.4554043  13.5432041  77.5776028  34.1393091  12.1972336  76.9608961
  29.1269175  16.3608586  69.2829446  29.9888339  16.6863485  69.5425263
  29.3119519  15.5740082  68.7702512  21.1436591  24.4430926  81.5609635
  20.4500062  24.0284879  81.0479589  21.8909582  24.4851463  80.9643053
  37.2801812  15.2337113  76.4264669  36.7000481  15.8921917  76.0442721
  37.0137744  14.4114457  76.0152086  35.7305378  14.6342171  78.6285989
  36.2305156  14.7458705  77.8200308  36.3740986  14.3303223  79.2686798
  23.0573333  24.3749180  79.4375649  23.0344022  24.4736867  78.4857533
  23.3673970  25.2214331  79.7592816  25.7160711  26.4325335  83.5522264
  26.6703965  26.4009277  83.4852195  25.5173235  25.9715959  84.3672490
  26.3060093  25.0026451  86.1193062  27.1252982  25.4970530  86.1427899
  26.5796901  24.0858419  86.0910629  36.0626690  17.3937203  75.4821017
  35.1752545  17.6786854  75.2641212  36.4780679  17.2330967  74.6348294
  39.4141226  17.4183724  79.1975356  40.1901616  17.9080177  79.4699973
  38.6889360  17.8441778  79.6547226  41.8513784  18.1311343  80.2549297
  42.4458275  17.8907079  79.5442605  41.9240368  17.4118474  80.8822833
  24.0710940  31.9744954  80.5692462  23.9365408  31.2145355  80.0030460
  23.6543002  32.6985854  80.1021251  35.2069903  27.1581878  69.5769037
  35.9105753  27.3631880  70.1926693  34.4832552  27.7258640  69.8418121
  36.0367713  22.9091739  75.6971307  35.9802915  23.3660291  74.8578940
  36.5896056  22.1482424  75.5194150  39.8472519  18.6981471  76.5221427
  39.5909454  18.2978107  77.3529634  39.2225387  19.4125265  76.3971566
  44.1584857  21.4377544  79.0292718  43.5984415  21.5070734  79.8024280
  43.5528361  21.2618529  78.3092214  27.2280066  32.8714271  80.7810904
  27.1112450  33.8159704  80.6789595  26.4072512  32.5687833  81.1696704
  37.1156601  27.5964407  71.6267497  37.9502204  27.1645606  71.4444972
  36.9540943  27.4246421  72.5544392  36.7702493  24.0996520  72.9923836
  36.7151297  23.9340792  72.0512280  36.1448548  24.8072553  73.1486026
  34.0848400  26.4045432  92.3177399  34.9539560  26.5786085  91.9564034
  33.6055151  27.2239849  92.1953128  30.0798618  13.6004629  72.5709155
  30.0677288  14.5446469  72.7277426  30.9722040  13.4174775  72.2768616
  28.2534580  33.5242533  83.9966833  29.1561827  33.5566144  84.3133328
  28.0271950  32.5942984  84.0113169  30.0088182  32.2773520  80.6576911
  29.0583813  32.2775381  80.5441284  30.3120668  31.5306254  80.1412946
  33.8950738  10.1947406  76.8255092  33.1283133   9.6405893  76.9711774
  34.3061443  10.2669275  77.6869243  45.7440876  38.1134058  81.7222674
  46.3819286  37.9940806  81.0186014  45.6261719  39.0614902  81.7810626
  42.5530582  38.0661486  81.6584199  42.2149093  37.9502551  80.7704733
  43.4220350  37.6652651  81.6385205  43.0350365  39.2196338  87.6170404
  43.0239006  38.8249136  86.7450908  43.1971004  38.4862411  88.2104175
  35.9581830  41.4148154  80.4865310  36.7503121  41.0738979  80.0711609
  36.1978480  41.5243129  81.4067463  39.7557626  42.0033450  86.5649588
  39.4647492  42.9079081  86.4496254  40.3914610  42.0449977  87.2793658
  40.6813833  39.3810298  83.1550948  41.2777405  39.1566321  82.4407911
  40.7388804  38.6395044  83.7576396  45.2982144  35.8385512  78.7975882
  46.0845233  35.4204935  78.4466299  45.5620848  36.7431604  78.9657530
  50.6990571  35.7760745  79.7008860  51.4315743  35.2059962  79.9346690
  49.9429927  35.3882346  80.1415366  42.3166691  38.1987987  76.8972203
  41.9524898  37.6718608  77.6085124  43.1733807  37.8086456  76.7238688
  48.2215992  29.4882319  84.1603469  47.8899316  30.3577730  83.9364684
  47.6261605  29.1718603  84.8397499  41.9572178  33.2277886  71.8933551
  42.1246580  34.0958123  72.2604022  41.7669347  33.3905168  70.9694841
  44.7147511  41.6894865  83.5599382  44.4148234  42.5919904  83.4515189
  44.3698571  41.4227049  84.4120535  38.1659993  38.1408662  79.5936086
  37.2410489  38.0084876  79.8013778  38.4144406  38.9202881  80.0906029
  48.1144655  34.2077406  81.2396819  47.2061532  34.1392814  80.9455580
  48.0632251  34.6849351  82.0678645  41.9361399  35.6835544  72.8780218
  41.8161024  36.1292595  73.7165698  41.2413987  36.0320862  72.3193756
  35.5268804  37.7841936  80.4279875  35.6561185  38.0376415  81.3419287
  34.8466255  38.3769644  80.1084530  42.1885521  35.6267051  89.1831716
  41.4118855  36.1860971  89.1734581  42.8276084  36.1123834  89.7046586
  49.9806301  32.4093844  83.0174693  49.3380682  32.7026377  82.3714488
  49.4761230  32.2946764  83.8227890  47.6346465  36.1557017  73.7060552
  48.5464321  36.3884404  73.5308250  47.1256112  36.7394061  73.1435631
  40.4431893  38.4352505  88.7449683  41.1846577  38.9737548  88.4684507
  39.7368878  39.0618793  88.9021235  45.9187233  40.5781645  87.3421845
  46.3270589  40.1364056  86.5976477  45.1964494  40.0034273  87.5956038
  42.2718303  35.5154252  84.7155402  43.1179498  35.9393665  84.8590051
  42.2116940  34.8587876  85.4093965  46.2416047  41.1382836  81.0974134
  45.6124910  41.3028550  80.3950202  45.8541709  41.5524445  81.8685098
  45.4217748  33.1758620  86.3736575  45.1778680  33.9300681  85.8370851
  45.6977679  33.5543968  87.2083822  47.3756211  39.7197232  85.0513841
  47.5873106  40.3628992  84.3748222  47.3285959  38.8859549  84.5835771
  44.9782440  32.3315053  81.9550413  44.1166919  32.6296307  82.2467151
  45.0044874  32.5485452  81.0231446  41.7944009  40.8757244  78.3624219
  42.2582355  41.1544947  77.5728841  41.5300807  39.9740688  78.1797309
  38.6868090  40.4228725  81.3003982  39.2569447  40.8515994  80.6621467
  39.2776202  40.1411310  81.9988168  39.1793257  35.5892153  89.5464993
  38.5491917  36.2708434  89.7800390  39.0729345  35.4775234  88.6018132
  34.4738229  35.2563949  80.4730917  33.6837283  35.5121477  79.9971028
  34.9649477  36.0712287  80.5782958  48.4902039  42.5969188  83.2236198
  49.3119482  42.1949375  82.9418880  48.4864442  42.4937422  84.1752314
  36.4252975  35.6208528  77.4314394  35.6284138  35.7327222  77.9497890
  36.1978567  35.9595180  76.5655285  42.2558642  42.1453231  85.3796909
  42.3203075  42.6073638  86.2155081  41.5469566  41.5150596  85.5079219
  32.7575932  35.5094439  82.9045908  33.0083971  36.3941449  83.1703484
  33.2935481  35.3299041  82.1321000  56.5808032  38.9407936  79.5721170
  55.8271740  38.3715334  79.4165174  56.7155573  38.9070601  80.5191804
  38.4573999  29.8912919  91.9090244  38.0640945  29.3379117  92.5837889
  39.2740140  30.2023497  92.2996762  35.4236057  41.3296777  75.8203814
  35.9360578  42.1240027  75.9709379  36.0758770  40.6323067  75.7537416
  37.2330942  44.4462533  77.9026567  37.4097570  45.3680498  77.7147551
  38.0287775  44.1320952  78.3320947  41.3741960  31.3070798  89.5010501
  42.1151674  31.9077951  89.4214963  41.6059883  30.5648435  88.9428543
  36.5183298  36.4927165  87.7788731  36.4036814  35.5912422  88.0795829
  35.6627816  36.7390862  87.4273547  43.5975136  44.4344905  89.3776231
  43.1538990  43.6481284  89.0597136  44.2592350  44.6224056  88.7120122
  38.3562257  45.9640707  83.9036910  38.9069683  45.8357770  83.1313904
  37.5173733  46.2635596  83.5531803  45.6956374  44.7147705  87.4057632
  45.6774850  45.5356586  86.9137902  46.6176294  44.5901780  87.6307774
  42.1529428  42.2291835  88.2481141  42.6857765  41.4680123  88.0180449
  41.6243510  41.9365486  88.9905295  45.3199123  27.3351901  83.7774783
  44.9763393  28.2253542  83.7013893  45.6878086  27.1453558  82.9144368
  33.3884974  39.6585431  76.5963385  34.2260196  40.0682439  76.3797092
  33.5663242  38.7184873  76.5663579  45.2849406  37.3260512  72.2847218
  44.7696030  38.0965116  72.5235605  45.0126715  36.6525648  72.9080279
  42.8696517  32.1710212  77.3432456  42.0138114  31.7817063  77.1638095
  43.2823469  32.2502173  76.4832242  44.3995664  29.7056556  81.7424016
  43.8960459  29.6686691  80.9291821  44.6926271  30.6149298  81.8020672
  40.6438550  29.7895285  80.7490198  41.5091546  29.5938094  80.3896087
  40.7116059  29.5605637  81.6759554  50.2583680  40.0792866  74.2200391
  49.4813123  39.7404026  73.7755553  50.9375161  40.0845490  73.5455356
  45.0735709  35.1987604  74.1106999  44.7685845  35.5133753  74.9617142
  46.0266151  35.2769024  74.1534332  48.4974987  39.5526848  80.8766999
  47.8398662  40.2426109  80.9647128  49.3015386  39.9423280  81.2200986
  38.2500869  32.0197493  78.1206564  38.8244621  31.7972675  77.3879757
  38.8371851  32.0886188  78.8735166  47.3080446  37.9071220  78.9270941
  47.8212328  38.5401212  79.4292651  47.9581670  37.3072416  78.5614301
  38.5770456  34.0501954  72.1402450  37.7407768  34.3876641  72.4611724
  38.4375226  33.9150934  71.2029587  40.5523536  28.8938742  76.8481634
  39.8987949  28.5787759  76.2238249  40.5104011  28.2714483  77.5741457
  43.7861277  35.3820676  81.1729281  42.8683838  35.6035623  81.0150969
  44.2021420  35.4566986  80.3140989  44.5696325  36.7812092  76.3031962
  45.3168144  37.2933489  75.9939084  44.8387914  36.4596144  77.1636355
  47.0175162  33.8169208  78.2850751  46.2797919  33.3046594  78.6160994
  47.2701935  33.3769589  77.4734028  47.1186789  26.5945460  78.8792520
  47.4245666  25.7342823  78.5918435  47.8439394  27.1863080  78.6791514
  33.4111145  36.9976146  77.2674118  33.2135545  36.4045507  76.5425185
  32.8557809  36.6928357  77.9850057  41.3907869  36.8899253  79.3868711
  41.4456479  35.9373089  79.3111188  40.5799071  37.0458692  79.8710010
  39.3300229  35.5076313  77.1459090  38.5168094  35.8070483  77.5524282
  39.8259223  35.1132001  77.8633572  44.9274440  35.9718137  85.9773984
  45.2823828  36.1989610  86.8368450  45.5746572  36.3036514  85.3551239
  50.6572177  39.0936573  76.6823313  50.5190076  39.2838169  75.7544502
  50.3008396  39.8555956  77.1391364  38.8214304  33.0794668  82.7620325
  39.4613683  32.9383427  82.0643288  37.9891834  32.7929181  82.3858927
  50.6841557  41.1613100  81.6934585  51.1178064  41.0688389  82.5417639
  51.3973138  41.1370600  81.0554601  39.5974607  42.3797099  78.8755318
  40.3915206  41.8847419  78.6737893  38.8866300  41.8514962  78.5123023
  44.4169452  44.7615194  83.2267685  44.4706474  45.3306130  83.9945401
  43.5484233  44.9317079  82.8621722  35.9057371  36.5240180  74.9515070
  34.9754959  36.4624636  75.1685032  36.0014843  36.0016133  74.1551712
  35.8242920  33.0494993  77.5393312  36.0849737  33.9640326  77.4302472
  36.6460092  32.5819436  77.6889925  37.2967845  34.4632750  84.7092136
  37.9690899  34.2550112  84.0604785  36.4697632  34.2654836  84.2697369
  51.5457107  41.2036801  84.2267470  51.7392997  42.1082611  84.4726745
  51.4457725  40.7444220  85.0606055  43.1993417  31.0894691  86.7257797
  42.5521332  31.7884641  86.6322274  43.9694433  31.5230835  87.0934046
  46.6072215  41.3543543  89.8008351  46.4557722  41.1254095  88.8838434
  46.5976895  42.3114145  89.8139696  43.3757552  38.9275456  84.7854617
  44.3049612  39.0786616  84.6123584  42.9548582  39.0159477  83.9303264
  42.1745883  42.9526121  82.5553155  42.0356969  42.5844905  83.4279093
  41.3860480  43.4673760  82.3837112  43.7251099  42.3307723  79.9441992
  43.3900931  42.2908493  80.8399642  43.2255044  41.6652439  79.4712403
  37.6995343  37.7375353  85.4694574  37.5615140  37.0055592  86.0706113
  38.6100266  37.6484253  85.1878761  40.3277643  37.4495313  84.9578253
  41.0377262  36.8088505  84.9164872  40.2846951  37.7008207  85.8804434
  48.3164422  44.3862666  87.8784832  48.2576968  43.7021886  87.2115416
  48.7183940  45.1281656  87.4265458  39.0406577  34.4360530  86.7773893
  38.5043934  33.9851269  87.4295489  38.4523286  34.5706439  86.0344357
  37.3355121  51.2024580  80.6718551  37.5751719  51.8343104  81.3497570
  36.4924317  50.8512620  80.9583911  38.4508836  33.8949182  69.3400356
  37.5738302  33.7737983  68.9762603  38.9266589  33.1035260  69.0879245
  48.3181829  42.3502250  86.1098812  47.4308608  42.0128172  86.2325211
  48.8880380  41.6185281  86.3467578  29.9710976  38.6826342  79.4341864
  30.6582016  38.3688072  78.8462879  29.8159105  39.5867706  79.1609115
  34.7745698  33.5716538  83.8626887  34.6903887  32.9642208  83.1277297
  33.9528405  34.0625556  83.8636384  41.8482983  47.0103702  83.0760055
  41.7753154  47.8158674  83.5879360  41.4060376  47.2095668  82.2508077
  44.9469412  32.0570102  79.2297082  45.4438112  31.3040064  78.9098153
  44.1756394  32.0934418  78.6640292  52.7999170  37.7610467  80.8715374
  52.7889046  38.6435183  80.5009307  51.9316549  37.4082018  80.6769911
  44.3081666  46.9090536  85.2318214  45.0209638  47.5438001  85.1594116
  43.8171695  47.0054402  84.4158216  46.0299193  40.8141789  76.8035506
  45.0955472  40.9343251  76.6340210  46.2075861  39.9114256  76.5395516
  41.5304381  34.1987485  78.9568767  41.1602169  33.6458525  79.6449672
  42.0263473  33.5945618  78.4043767  49.4171744  36.6559108  77.3385540
  49.8832197  37.4887100  77.2645843  49.8679245  36.1904090  78.0430798
  39.3593580  44.6584980  86.0523785  40.0603039  45.2921463  86.2053179
  38.8888695  44.9999711  85.2919424  47.3888407  29.0239695  81.3776441
  46.4751487  29.2543922  81.5458648  47.8181509  29.1078139  82.2290474
  47.1594866  37.2129587  83.8776335  46.5066316  37.4605495  83.2228788
  47.5375245  36.3993725  83.5438813  43.2082439  37.9549398  90.3642372
  42.5323076  37.8543528  91.0344748  44.0310072  37.7988612  90.8278370
  34.9561298  44.1921335  82.9854888  35.5414734  43.4465023  83.1182792
  34.7586136  44.5025291  83.8691551  37.8099953  47.2272582  78.0017330
  37.1410328  47.7118710  77.5181370  37.6712823  47.4741803  78.9160708
  29.5478952  36.7626935  81.7059331  29.5863052  36.2290526  82.4996449
  29.0419245  36.2362140  81.0870308  41.9505221  49.2616326  84.5999988
  42.5023529  49.4247947  85.3649074  42.2911415  49.8520763  83.9280013
  36.9269715  31.6091475  85.2021873  36.9911041  32.4706306  84.7899271
  36.8636835  30.9965477  84.4694232  36.4021987  33.6814608  88.8494907
  37.0294026  33.2991685  89.4632432  35.5449906  33.4628810  89.2150600
  46.8016096  44.0877583  90.4548643  47.3456000  44.7007541  89.9603598
  46.2202941  44.6457162  90.9715656  33.1787530  35.4891037  74.7813262
  33.4740971  34.5801716  74.7280316  32.2775566  35.4678777  74.4594264
  36.7081777  33.5647034  80.7640811  35.9868363  34.1783001  80.6248284
  37.4975033  34.1004798  80.6857457  47.1508517  45.0107321  83.2143221
  46.2038853  44.8912672  83.1421547  47.4991290  44.1229819  83.2969482
  39.5108090  30.9001460  87.0381462  40.0342492  31.1463757  87.8007772
  39.2920424  31.7321495  86.6184600  34.9075372  33.1705135  74.9052587
  34.5788078  32.2902514  74.7227693  35.2614742  33.1152803  75.7928976
  38.0217195  33.4578105  75.2728065  38.3613267  33.9864026  74.5506673
  38.4689315  33.7958511  76.0486631  47.7589072  45.6288596  80.5012446
  48.6835620  45.4231458  80.3636897  47.5904376  45.3804997  81.4101787
  40.7160636  31.8415155  84.7231133  40.3757456  31.0422968  85.1251813
  40.0099642  32.1416866  84.1507966  41.3677107  28.9264468  83.1758456
  42.1903177  28.4524946  83.0537346  41.6115171  29.7054951  83.6757142
  40.0085342  31.9552726  73.4721358  40.7293704  32.3333979  72.9685075
  39.3850646  32.6741603  73.5756336  44.1516465  32.6597875  74.4079690
  44.3680079  33.5422513  74.1068518  43.6710532  32.2684089  73.6785332
  38.8915686  35.6183588  80.9850435  38.7460267  35.9323891  81.8774716
  38.4140890  36.2368489  80.4321333  40.7512069  32.6086136  81.0331324
  40.7373638  31.7127230  80.6963622  41.4684497  32.6156800  81.6669610
  42.6038200  33.0423477  83.0784452  42.3455978  33.9640547  83.0768782
  42.0723240  32.6453911  83.7684916  33.3661348  38.1588933  83.9238096
  32.8214816  38.9348741  84.0558370  34.2440698  38.5059737  83.7657217
  40.1548965  31.4900517  76.3018894  40.2764876  30.5617163  76.5009782
  39.8651007  31.5039203  75.3897210  43.0240155  29.1755427  79.4385614
  43.0461852  29.2394760  78.4837594  43.4408214  28.3359936  79.6326120
  34.1527370  37.2858829  86.8168253  33.4109106  37.4341464  87.4032883
  33.8320114  37.5467095  85.9535002  42.0971033  46.8274807  86.6148643
  42.4058159  46.5823954  87.4871342  42.8946515  47.0321446  86.1267513
  34.5983984  45.1724258  78.8478647  35.4242004  44.8728030  78.4677291
  34.2478036  44.4031880  79.2968436  39.5665517  44.5250726  80.9176321
  38.9445526  43.8621431  80.6178549  40.2370384  44.5511858  80.2349969
  32.7992589  43.0910584  79.8067581  31.9624497  42.6632759  79.6251582
  32.7716234  43.2843028  80.7438372  39.6390044  33.0032514  90.5108827
  39.6878200  33.8794637  90.1286597  40.1812559  32.4609907  89.9380470
  50.1244890  43.5473637  89.7909964  49.3340434  43.5297776  89.2514463
  49.8878245  44.0861931  90.5459001  50.2442765  40.3966104  87.1042693
  50.2940770  40.2316111  88.0458215  50.1356689  39.5293363  86.7140573
  47.5346528  36.3797032  88.4201999  48.4356390  36.2403496  88.1285997
  47.6094502  36.5451486  89.3600177  41.8689333  33.7563886  87.2655186
  40.9992642  34.0497452  86.9937774  42.1048813  34.3404331  87.9862449
  51.7460962  42.8163045  87.3484714  51.4545770  43.1793026  88.1848175
  51.1333093  42.1030053  87.1698046  52.9456644  40.3815925  79.8687284
  53.7803536  40.8205729  80.0324845  53.0815773  39.9054578  79.0495530
  49.9948150  37.9395660  85.8164772  50.4702272  38.1323306  85.0083623
  49.0713716  37.9954846  85.5708156  44.5728367  29.9743503  84.7820606
  45.0910311  30.7104530  84.4567095  44.2183500  30.2807497  85.6167365
  36.1527304  34.8348185  72.8982012  35.4596549  34.9092539  72.2422048
  35.9079056  34.0708528  73.4203529  44.8240961  26.3943786  80.3021503
  45.1042715  25.7266975  80.9281929  45.6091568  26.5872881  79.7896166
  48.6949819  34.8161420  84.0493078  49.6467242  34.9159517  84.0705302
  48.5253270  34.0239688  84.5591162  46.7164199  31.9017003  84.2352479
  46.1214131  32.1822016  83.5398967  46.4313895  32.3910904  85.0069220
  51.1737897  38.0367540  83.1635377  51.1414217  37.0983540  83.3495061
  51.7838521  38.1151576  82.4301202  51.3232386  34.8278583  83.2093660
  50.8071434  34.0437040  83.0223589  52.2072334  34.4997300  83.3740180
  48.9843112  28.5719599  79.1689473  48.7867934  28.2634687  80.0532805
  49.5942818  29.2981237  79.2987403  56.9914447  39.0983546  82.3041414
  57.7217835  38.8368834  82.8649117  56.3821392  38.3612268  82.3443482
  55.0729744  37.2391409  82.9015865  54.3462908  37.1047374  82.2932357
  54.6577031  37.5468238  83.7072583  42.8959920  40.9581339  90.6663238
  43.8162930  41.1359938  90.8603285  42.8609503  40.0137384  90.5142938
  41.1964145  34.8313569  69.1417467  40.2895600  34.5346682  69.2180180
  41.4740126  34.5343387  68.2751753  32.1142085  36.1519932  79.5916513
  31.7944870  35.2985240  79.2990887  31.5675514  36.3668510  80.3474480
  35.8921993  38.8682373  83.3086019  36.1108003  39.7999481  83.3274053
  36.3047767  38.5090348  84.0940823  42.8126211  29.3750459  75.2961708
  42.0026939  29.0297544  75.6716954  43.5010628  29.0658002  75.8849319
  44.7416759  28.4528505  76.9186004  45.2947798  28.8723959  77.5776028
  44.9786845  27.5264254  76.9608961  40.7649858  34.4415579  92.6988768
  40.6646585  35.3909936  92.6300860  40.5471400  34.1133818  91.8264838
  39.9662930  31.6900504  69.2829446  40.8282094  32.0155402  69.5425263
  40.1513274  30.9032000  68.7702512  31.9830345  39.7722844  81.5609635
  31.2893817  39.3576797  81.0479589  32.7303336  39.8143380  80.9643053
  48.1195566  30.5629031  76.4264669  47.5394235  31.2213835  76.0442721
  47.8531499  29.7406375  76.0152086  46.5699133  29.9634088  78.6285989
  47.0698911  30.0750623  77.8200308  47.2134740  29.6595141  79.2686798
  40.6281128  37.8712718  91.5153830  40.1448210  38.6713078  91.7217719
  40.7142067  37.8820663  90.5621274  33.8967088  39.7041098  79.4375649
  33.8737776  39.8028785  78.4857533  34.2067724  40.5506248  79.7592816
  36.5554466  41.7617253  83.5522264  37.5097719  41.7301195  83.4852195
  36.3566989  41.3007876  84.3672490  37.1453848  40.3318369  86.1193062
  37.9646737  40.8262447  86.1427899  37.4190656  39.4150337  86.0910629
  46.9020444  32.7229121  75.4821017  46.0146299  33.0078772  75.2641212
  47.3174433  32.5622884  74.6348294  50.2534980  32.7475642  79.1975356
  51.0295370  33.2372094  79.4699973  49.5283114  33.1733696  79.6547226
  52.6907539  33.4603261  80.2549297  53.2852030  33.2198997  79.5442605
  52.7634123  32.7410392  80.8822833  34.9104695  47.3036872  80.5692462
  34.7759163  46.5437273  80.0030460  34.4936757  48.0277772  80.1021251
  46.8761468  38.2383657  75.6971307  46.8196669  38.6952208  74.8578940
  47.4289810  37.4774341  75.5194150  50.6866274  34.0273389  76.5221427
  50.4303208  33.6270024  77.3529634  50.0619142  34.7417183  76.3971566
  38.0673820  48.2006189  80.7810904  37.9506205  49.1451622  80.6789595
  37.2466267  47.8979751  81.1696704  47.6096247  39.4288438  72.9923836
  47.5545051  39.2632710  72.0512280  46.9842302  40.1364471  73.1486026
  32.3988762  34.6656503  86.8185259  33.0447626  34.1555456  87.3072484
  32.1905913  35.4025184  87.3928684  44.9242154  41.7337350  92.3177399
  45.7933314  41.9078002  91.9564034  44.4448906  42.5531767  92.1953128
  40.9192373  28.9296547  72.5709155  40.9071043  29.8738387  72.7277426
  41.8115795  28.7466693  72.2768616  39.0928335  48.8534451  83.9966833
  39.9955581  48.8858061  84.3133328  38.8665705  47.9234902  84.0113169
  40.8481937  47.6065438  80.6576911  39.8977568  47.6067299  80.5441284
  41.1514423  46.8598172  80.1412946  44.7344492  25.5239324  76.8255092
  43.9676888  24.9697810  76.9711774  45.1455197  25.5961193  77.6869243
  36.7386253  31.8124120  90.9160273  37.6017715  31.4560924  91.1263597
  36.1651664  31.4738014  91.6035677  56.5834630  53.4425976  81.7222674
  57.2213040  53.3232723  81.0186014  56.4655473  54.3906820  81.7810626
  53.3924336  53.3953404  81.6584199  53.0542848  53.2794469  80.7704733
  54.2614105  52.9944569  81.6385205  53.8744119  54.5488256  87.6170404
  53.8632760  54.1541054  86.7450908  54.0364759  53.8154328  88.2104175
  50.5951381  57.3325368  86.5649588  50.3041247  58.2370998  86.4496254
  51.2308365  57.3741895  87.2793658  61.5384326  51.1052663  79.7008860
  62.2709498  50.5351880  79.9346690  60.7823681  50.7174263  80.1415366
  59.0609746  44.8174237  84.1603469  58.7293071  45.6869648  83.9364684
  58.4655359  44.5010521  84.8397499  55.5541266  57.0186783  83.5599382
  55.2541989  57.9211822  83.4515189  55.2092325  56.7518966  84.4120535
  58.9538409  49.5369323  81.2396819  58.0455287  49.4684732  80.9455580
  58.9026005  50.0141268  82.0678645  53.0279275  50.9558969  89.1831716
  52.2512609  51.5152889  89.1734581  53.6669838  51.4415752  89.7046586
  60.8200056  47.7385762  83.0174693  60.1774436  48.0318295  82.3714488
  60.3154984  47.6238682  83.8227890  51.2825648  53.7644422  88.7449683
  52.0240332  54.3029466  88.4684507  50.5762633  54.3910711  88.9021235
  56.7580987  55.9073563  87.3421845  57.1664343  55.4655973  86.5976477
  56.0358249  55.3326190  87.5956038  53.1112057  50.8446169  84.7155402
  53.9573252  51.2685583  84.8590051  53.0510695  50.1879794  85.4093965
  60.9599034  57.4029191  78.4518497  60.2750072  57.7828093  77.9015531
  61.0442883  58.0124518  79.1850445  56.2611503  48.5050538  86.3736575
  56.0172434  49.2592598  85.8370851  56.5371433  48.8835885  87.2083822
  58.2149965  55.0489150  85.0513841  58.4266861  55.6920910  84.3748222
  58.1679714  54.2151467  84.5835771  55.8176194  47.6606971  81.9550413
  54.9560673  47.9588224  82.2467151  55.8438629  47.8777370  81.0231446
  50.0187011  50.9184070  89.5464993  49.3885672  51.6000351  89.7800390
  49.9123099  50.8067152  88.6018132  59.3295793  57.9261106  83.2236198
  60.1513237  57.5241293  82.9418880  59.3258196  57.8229340  84.1752314
  53.0952397  57.4745149  85.3796909  53.1596829  57.9365556  86.2155081
  52.3863321  56.8442514  85.5079219  67.4201786  54.2699854  79.5721170
  66.6665495  53.7007252  79.4165174  67.5549328  54.2362519  80.5191804
  49.2967754  45.2204836  91.9090244  48.9034700  44.6671035  92.5837889
  50.1133894  45.5315415  92.2996762  52.2135715  46.6362715  89.5010501
  52.9545428  47.2369868  89.4214963  52.4453638  45.8940353  88.9428543
  47.3577053  51.8219083  87.7788731  47.2430568  50.9204340  88.0795829
  46.5021571  52.0682779  87.4273547  54.4368891  59.7636823  89.3776231
  53.9932745  58.9773201  89.0597136  55.0986104  59.9515973  88.7120122
  49.1956012  61.2932624  83.9036910  49.7463437  61.1649688  83.1313904
  48.3567488  61.5927514  83.5531803  56.5350129  60.0439623  87.4057632
  56.5168604  60.8648504  86.9137902  57.4570049  59.9193698  87.6307774
  52.9923183  57.5583752  88.2481141  53.5251520  56.7972040  88.0180449
  52.4637264  57.2657404  88.9905295  56.1592878  42.6643818  83.7774783
  55.8157147  43.5545460  83.7013893  56.5271841  42.4745476  82.9144368
  55.2389418  45.0348473  81.7424016  54.7354214  44.9978609  80.9291821
  55.5320025  45.9441216  81.8020672  59.3368742  54.8818765  80.8766999
  58.6792416  55.5718027  80.9647128  60.1409141  55.2715197  81.2200986
  55.4096575  63.2147462  71.6831612  54.7358273  63.5179159  72.2916570
  55.7962397  64.0176543  71.3337069  54.6255031  50.7112594  81.1729281
  53.7077593  50.9327541  81.0150969  55.0415175  50.7858904  80.3140989
  58.9135997  58.2169139  77.0550084  58.4598324  57.3760049  77.1115274
  58.2829963  58.8530538  77.3924864  57.9580544  41.9237377  78.8792520
  58.2639420  41.0634741  78.5918435  58.6833148  42.5154998  78.6791514
  55.7668195  51.3010055  85.9773984  56.1217583  51.5281528  86.8368450
  56.4140326  51.6328432  85.3551239  61.4965932  54.4228491  76.6823313
  61.3583830  54.6130087  75.7544502  61.1402151  55.1847873  77.1391364
  49.6608058  48.4086586  82.7620325  50.3007437  48.2675345  82.0643288
  48.8285589  48.1221099  82.3858927  61.5235311  56.4905018  81.6934585
  61.9571818  56.3980307  82.5417639  62.2366892  56.4662518  81.0554601
  55.2563206  60.0907112  83.2267685  55.3100229  60.6598048  83.9945401
  54.3877988  60.2608997  82.8621722  48.1361600  49.7924668  84.7092136
  48.8084653  49.5842030  84.0604785  47.3091386  49.5946754  84.2697369
  62.3850861  56.5328718  84.2267470  62.5786751  57.4374529  84.4726745
  62.2851479  56.0736137  85.0606055  54.0387172  46.4186609  86.7257797
  53.3915087  47.1176559  86.6322274  54.8088187  46.8522753  87.0934046
  57.4465970  56.6835461  89.8008351  57.2951476  56.4546013  88.8838434
  57.4370649  57.6406062  89.8139696  54.2151306  54.2567374  84.7854617
  55.1443366  54.4078533  84.6123584  53.7942336  54.3451395  83.9303264
  48.5389097  53.0667271  85.4694574  48.4008895  52.3347510  86.0706113
  49.4494020  52.9776171  85.1878761  51.1671398  52.7787230  84.9578253
  51.8771016  52.1380422  84.9164872  51.1240706  53.0300125  85.8804434
  59.1558176  59.7154584  87.8784832  59.0970723  59.0313804  87.2115416
  59.5577695  60.4573574  87.4265458  49.8800332  49.7652448  86.7773893
  49.3437689  49.3143187  87.4295489  49.2917040  49.8998357  86.0344357
  48.1748875  66.5316497  80.6718551  48.4145473  67.1635022  81.3497570
  47.3318072  66.1804537  80.9583911  59.1575584  57.6794168  86.1098812
  58.2702362  57.3420089  86.2325211  59.7274135  56.9477199  86.3467578
  45.6139453  48.9008456  83.8626887  45.5297642  48.2934125  83.1277297
  44.7922159  49.3917474  83.8636384  52.6876737  62.3395620  83.0760055
  52.6146908  63.1450591  83.5879360  52.2454130  62.5387586  82.2508077
  55.7863167  47.3862019  79.2297082  56.2831866  46.6331982  78.9098153
  55.0150148  47.4226336  78.6640292  63.6392924  53.0902385  80.8715374
  63.6282800  53.9727100  80.5009307  62.7710304  52.7373936  80.6769911
  55.1475421  62.2382454  85.2318214  55.8603393  62.8729919  85.1594116
  54.6565449  62.3346320  84.4158216  50.1987334  59.9876897  86.0523785
  50.8996794  60.6213380  86.2053179  49.7282449  60.3291629  85.2919424
  58.2282162  44.3531613  81.3776441  57.3145241  44.5835840  81.5458648
  58.6575263  44.4370057  82.2290474  57.9988620  52.5421505  83.8776335
  57.3460070  52.7897412  83.2228788  58.3769000  51.7285643  83.5438813
  54.0476193  53.2841316  90.3642372  53.3716830  53.1835445  91.0344748
  54.8703827  53.1280530  90.8278370  45.7955052  59.5213252  82.9854888
  46.3808489  58.7756940  83.1182792  45.5979891  59.8317209  83.8691551
  52.7898976  64.5908243  84.5999988  53.3417284  64.7539865  85.3649074
  53.1305169  65.1812681  83.9280013  47.7663469  46.9383393  85.2021873
  47.8304796  47.7998224  84.7899271  47.7030589  46.3257395  84.4694232
  47.2415742  49.0106526  88.8494907  47.8687781  48.6283603  89.4632432
  46.3843661  48.7920728  89.2150600  57.6409850  59.4169501  90.4548643
  58.1849754  60.0299459  89.9603598  57.0596695  59.9749079  90.9715656
  55.9267363  62.5390219  81.5863670  55.8018503  61.7379959  81.0774616
  56.5846454  63.0336412  81.0977640  57.9902272  60.3399239  83.2143221
  57.0432607  60.2204590  83.1421547  58.3385045  59.4521737  83.2969482
  50.3501845  46.2293378  87.0381462  50.8736247  46.4755674  87.8007772
  50.1314178  47.0613413  86.6184600  58.5982827  60.9580514  80.5012446
  59.5229374  60.7523375  80.3636897  58.4298130  60.7096915  81.4101787
  51.5554390  47.1707073  84.7231133  51.2151210  46.3714886  85.1251813
  50.8493396  47.4708784  84.1507966  52.2070862  44.2556385  83.1758456
  53.0296931  43.7816864  83.0537346  52.4508925  45.0346869  83.6757142
  51.5905823  47.9378054  81.0331324  51.5767392  47.0419147  80.6963622
  52.3078252  47.9448718  81.6669610  53.4431954  48.3715394  83.0784452
  53.1849732  49.2932465  83.0768782  52.9116995  47.9745829  83.7684916
  58.3878143  61.4766181  75.8574537  58.5615020  60.9112604  75.1048389
  58.8807034  62.2767076  75.6754027  64.2417534  54.2402604  77.4764837
  64.6848680  53.4909929  77.0783960  63.3644044  54.2312741  77.0938569
  59.3753315  60.7932946  72.9571435  60.0704220  61.4139638  73.1758750
  59.7176466  59.9428297  73.2323813  44.9921125  52.6150747  86.8168253
  44.2502861  52.7633382  87.4032883  44.6713869  52.8759012  85.9535002
  61.2744739  58.2432651  74.4858766  61.7996063  58.5819924  73.7608086
  61.1867091  57.3079667  74.3021901  52.9364787  62.1566725  86.6148643
  53.2451914  61.9115872  87.4871342  53.7340269  62.3613363  86.1267513
  50.4783799  48.3324432  90.5108827  50.5271954  49.2086554  90.1286597
  51.0206313  47.7901825  89.9380470  60.9638645  58.8765555  89.7909964
  60.1734188  58.8589694  89.2514463  60.7271999  59.4153849  90.5459001
  61.0836520  55.7258021  87.1042693  61.1334525  55.5608029  88.0458215
  60.9750443  54.8585280  86.7140573  58.3740282  51.7088949  88.4201999
  59.2750145  51.5695414  88.1285997  58.4488257  51.8743404  89.3600177
  52.7083087  49.0855804  87.2655186  51.8386397  49.3789370  86.9937774
  52.9442568  49.6696249  87.9862449  62.5854717  58.1454963  87.3484714
  62.2939525  58.5084943  88.1848175  61.9726848  57.4321971  87.1698046
  63.7850399  55.7107843  79.8687284  64.6197290  56.1497647  80.0324845
  63.9209528  55.2346496  79.0495530  60.8341905  53.2687577  85.8164772
  61.3096026  53.4615224  85.0083623  59.9107470  53.3246763  85.5708156
  55.4122121  45.3035421  84.7820606  55.9304065  46.0396448  84.4567095
  55.0577254  45.6099414  85.6167365  55.6634715  41.7235704  80.3021503
  55.9436469  41.0558893  80.9281929  56.4485322  41.9164799  79.7896166
  59.5343574  50.1453338  84.0493078  60.4860997  50.2451435  84.0705302
  59.3647024  49.3531606  84.5591162  57.5557953  47.2308921  84.2352479
  56.9607885  47.5113933  83.5398967  57.2707650  47.7202822  85.0069220
  62.0131652  53.3659457  83.1635377  61.9807972  52.4275458  83.3495061
  62.6232275  53.4443494  82.4301202  62.1626140  50.1570501  83.2093660
  61.6465189  49.3728957  83.0223589  63.0466089  49.8289217  83.3740180
  59.8236867  43.9011516  79.1689473  59.6261688  43.5926604  80.0532805
  60.4336573  44.6273155  79.2987403  67.8308201  54.4275464  82.3041414
  68.5611590  54.1660752  82.8649117  67.2215147  53.6904186  82.3443482
  65.9123499  52.5683327  82.9015865  65.1856662  52.4339292  82.2932357
  65.4970785  52.8760155  83.7072583  53.7353675  56.2873256  90.6663238
  54.6556684  56.4651855  90.8603285  53.7003258  55.3429302  90.5142938
  51.6043613  49.7707497  92.6988768  51.5040340  50.7201854  92.6300860
  51.3865155  49.4425736  91.8264838  57.4092887  45.2926006  78.6285989
  57.9092665  45.4042540  77.8200308  58.0528495  44.9887059  79.2686798
  51.4674883  53.2004636  91.5153830  50.9841965  54.0004996  91.7217719
  51.5535822  53.2112580  90.5621274  47.9847602  55.6610286  86.1193062
  48.8040491  56.1554365  86.1427899  48.2584410  54.7442254  86.0910629
  61.0928735  48.0767560  79.1975356  61.8689125  48.5664012  79.4699973
  60.3676869  48.5025614  79.6547226  63.5301293  48.7895179  80.2549297
  64.1245784  48.5490915  79.5442605  63.6027877  48.0702309  80.8822833
  45.7498449  62.6328790  80.5692462  45.6152917  61.8729191  80.0030460
  45.3330511  63.3569690  80.1021251  61.5260028  49.3565306  76.5221427
  61.2696963  48.9561942  77.3529634  60.9012896  50.0709100  76.3971566
  65.8372366  52.0961380  79.0292718  65.2771924  52.1654569  79.8024280
  65.2315870  51.9202364  78.3092214  43.2382517  49.9948420  86.8185259
  43.8841380  49.4847374  87.3072484  43.0299668  50.7317102  87.3928684
  55.7635909  57.0629268  92.3177399  56.6327069  57.2369920  91.9564034
  55.2842660  57.8823684  92.1953128  49.9322089  64.1826369  83.9966833
  50.8349336  64.2149979  84.3133328  49.7059459  63.2526820  84.0113169
  47.5780008  47.1416037  90.9160273  48.4411469  46.7852842  91.1263597
  47.0045418  46.8029932  91.6035677  67.4228385  68.7717894  81.7222674
  68.0606795  68.6524641  81.0186014  67.3049228  69.7198738  81.7810626
  64.2318091  68.7245322  81.6584199  63.8936602  68.6086386  80.7704733
  65.1007859  68.3236487  81.6385205  60.0904907  70.5780798  77.6481089
  59.5269772  70.4870735  76.8797377  59.9757302  69.7580703  78.1283582
  64.7137874  69.8780173  87.6170404  64.7026515  69.4832972  86.7450908
  64.8758513  69.1446246  88.2104175  57.6369339  72.0731990  80.4865310
  58.4290630  71.7322814  80.0711609  57.8765989  72.1826965  81.4067463
  65.6704465  74.2451766  72.9595554  65.0192445  74.8305846  72.5729568
  66.4648828  74.7757961  73.0190592  59.5960092  71.3340903  73.3582689
  60.3690968  70.7869890  73.2195565  59.9485491  72.1985152  73.5697150
  61.4345135  72.6617285  86.5649588  61.1435001  73.5662916  86.4496254
  62.0702119  72.7033813  87.2793658  62.3601342  70.0394134  83.1550948
  62.9564914  69.8150156  82.4407911  62.4176313  69.2978879  83.7576396
  61.9326370  67.4933569  70.9901139  62.1851891  66.9715090  70.2284602
  60.9950929  67.3299715  71.0927822  66.9769653  66.4969347  78.7975882
  67.7632742  66.0788771  78.4466299  67.2408357  67.4015440  78.9657530
  67.1479730  71.9342198  73.4964539  66.5125563  72.0076824  74.2085443
  66.8177137  72.5235797  72.8183618  72.3778080  66.4344581  79.7008860
  73.1103252  65.8643797  79.9346690  71.6217436  66.0466181  80.1415366
  61.6522659  69.3961675  73.1925514  61.5358917  68.7206578  73.8606598
  61.7624919  68.9094049  72.3757667  63.9954200  68.8571822  76.8972203
  63.6312407  68.3302443  77.6085124  64.8521316  68.4670291  76.7238688
  69.9003501  60.1466155  84.1603469  69.5686825  61.0161566  83.9364684
  69.3049114  59.8302439  84.8397499  63.6359687  63.8861722  71.8933551
  63.8034089  64.7541958  72.2604022  63.4456856  64.0489004  70.9694841
  66.3935020  72.3478701  83.5599382  66.0935743  73.2503740  83.4515189
  66.0486080  72.0810884  84.4120535  59.8447502  68.7992498  79.5936086
  58.9197998  68.6668712  79.8013778  60.0931915  69.5786717  80.0906029
  69.7932164  64.8661241  81.2396819  68.8849041  64.7976649  80.9455580
  69.7419760  65.3433186  82.0678645  63.6148908  66.3419379  72.8780218
  63.4948533  66.7876430  73.7165698  62.9201496  66.6904697  72.3193756
  57.2056313  68.4425771  80.4279875  57.3348694  68.6960250  81.3419287
  56.5253764  69.0353479  80.1084530  61.3755800  79.1123021  76.5270349
  61.2979830  80.0630846  76.6058830  60.7717444  78.7668894  77.1845276
  63.8673030  66.2850887  89.1831716  63.0906364  66.8444807  89.1734581
  64.5063593  66.7707670  89.7046586  71.6593810  63.0677679  83.0174693
  71.0168191  63.3610212  82.3714488  71.1548739  62.9530600  83.8227890
  69.3133974  66.8140853  73.7060552  70.2251830  67.0468239  73.5308250
  68.8043621  67.3977897  73.1435631  62.1219402  69.0936340  88.7449683
  62.8634086  69.6321384  88.4684507  61.4156387  69.7202629  88.9021235
  67.5974742  71.2365480  87.3421845  68.0058098  70.7947891  86.5976477
  66.8752003  70.6618108  87.5956038  63.9505812  66.1738087  84.7155402
  64.7967007  66.5977501  84.8590051  63.8904449  65.5171711  85.4093965
  67.9203556  71.7966671  81.0974134  67.2912419  71.9612385  80.3950202
  67.5329218  72.2108281  81.8685098  71.7992788  72.7321109  78.4518497
  71.1143826  73.1120010  77.9015531  71.8836637  73.3416435  79.1850445
  67.1005257  63.8342455  86.3736575  66.8566189  64.5884516  85.8370851
  67.3765188  64.2127803  87.2083822  69.0543720  70.3781068  85.0513841
  69.2660615  71.0212828  84.3748222  69.0073468  69.5443384  84.5835771
  66.6569949  62.9898888  81.9550413  65.7954428  63.2880142  82.2467151
  66.6832383  63.2069287  81.0231446  63.4731518  71.5341079  78.3624219
  63.9369864  71.8128782  77.5728841  63.2088316  70.6324524  78.1797309
  60.3655599  71.0812561  81.3003982  60.9356956  71.5099829  80.6621467
  60.9563711  70.7995145  81.9988168  62.4100404  67.6564231  75.1713784
  63.1124448  68.1085275  75.6387710  62.0781033  67.0148050  75.7993677
  60.8580766  66.2475988  89.5464993  60.2279426  66.9292269  89.7800390
  60.7516854  66.1359070  88.6018132  56.1525738  65.9147784  80.4730917
  55.3624792  66.1705313  79.9971028  56.6436986  66.7296122  80.5782958
  70.1689548  73.2553023  83.2236198  70.9906991  72.8533211  82.9418880
  70.1651951  73.1521257  84.1752314  58.1040484  66.2792363  77.4314394
  57.3071647  66.3911058  77.9497890  57.8766076  66.6179016  76.5655285
  63.9346151  72.8037067  85.3796909  63.9990584  73.2657474  86.2155081
  63.2257075  72.1734431  85.5079219  54.4363441  66.1678275  82.9045908
  54.6871480  67.0525284  83.1703484  54.9722990  65.9882876  82.1321000
  78.2595541  69.5991772  79.5721170  77.5059249  69.0299170  79.4165174
  78.3943082  69.5654436  80.5191804  63.6494169  74.4705174  75.2475889
  63.5139844  75.3156710  75.6760737  64.1903981  74.6724452  74.4841823
  60.1361508  60.5496754  91.9090244  59.7428454  59.9962952  92.5837889
  60.9527649  60.8607332  92.2996762  57.1023566  71.9880612  75.8203814
  57.6148087  72.7823862  75.9709379  57.7546279  71.2906903  75.7537416
  58.9118451  75.1046368  77.9026567  59.0885079  76.0264333  77.7147551
  59.7075284  74.7904788  78.3320947  63.0529469  61.9654633  89.5010501
  63.7939183  62.5661786  89.4214963  63.2847392  61.2232271  88.9428543
  58.1970807  67.1511000  87.7788731  58.0824323  66.2496257  88.0795829
  57.3415325  67.3974697  87.4273547  65.2762645  75.0928741  89.3776231
  64.8326499  74.3065119  89.0597136  65.9379859  75.2807891  88.7120122
  60.0349766  76.6224542  83.9036910  60.5857192  76.4941606  83.1313904
  59.1961242  76.9219431  83.5531803  67.3743883  75.3731540  87.4057632
  67.3562359  76.1940422  86.9137902  68.2963803  75.2485616  87.6307774
  63.8316937  72.8875670  88.2481141  64.3645274  72.1263958  88.0180449
  63.3031019  72.5949322  88.9905295  66.9986632  57.9935736  83.7774783
  66.6550902  58.8837378  83.7013893  67.3665595  57.8037394  82.9144368
  55.0672483  70.3169266  76.5963385  55.9047705  70.7266275  76.3797092
  55.2450751  69.3768709  76.5663579  66.9636915  67.9844347  72.2847218
  66.4483539  68.7548952  72.5235605  66.6914224  67.3109483  72.9080279
  64.5484026  62.8294048  77.3432456  63.6925622  62.4400898  77.1638095
  64.9610978  62.9086009  76.4832242  66.0783173  60.3640391  81.7424016
  65.5747968  60.3270526  80.9291821  66.3713780  61.2733134  81.8020672
  62.3226059  60.4479121  80.7490198  63.1879055  60.2521929  80.3896087
  62.3903568  60.2189473  81.6759554  71.9371189  70.7376702  74.2200391
  71.1600632  70.3987861  73.7755553  72.6162670  70.7429325  73.5455356
  66.7523218  65.8571439  74.1106999  66.4473354  66.1717588  74.9617142
  67.7053660  65.9352859  74.1534332  65.1969650  72.0161662  75.7599953
  64.6691012  71.2814422  75.4473190  64.6957153  72.7936339  75.5139921
  70.1762496  70.2110683  80.8766999  69.5186171  70.9009944  80.9647128
  70.9802895  70.6007115  81.2200986  59.9288378  62.6781329  78.1206564
  60.5032130  62.4556510  77.3879757  60.5159360  62.7470023  78.8735166
  68.9867955  68.5655056  78.9270941  69.4999837  69.1985047  79.4292651
  69.6369179  67.9656251  78.5614301  60.2557965  64.7085790  72.1402450
  59.4195277  65.0460476  72.4611724  60.1162735  64.5734770  71.2029587
  62.2311045  59.5522578  76.8481634  61.5775458  59.2371595  76.2238249
  62.1891520  58.9298318  77.5741457  66.2490329  78.5439380  71.6831612
  65.5752028  78.8471077  72.2916570  66.6356151  79.3468460  71.3337069
  65.4648786  66.0404511  81.1729281  64.5471347  66.2619458  81.0150969
  65.8808929  66.1150822  80.3140989  66.2483834  67.4395927  76.3031962
  66.9955653  67.9517324  75.9939084  66.5175423  67.1179980  77.1636355
  64.5210484  69.9354468  73.2858916  63.6121703  69.6513500  73.3831386
  64.5505568  70.3553546  72.4262223  69.7529751  73.5461057  77.0550084
  69.2992078  72.7051967  77.1115274  69.1223718  74.1822455  77.3924864
  68.6962671  64.4753043  78.2850751  67.9585428  63.9630429  78.6160994
  68.9489444  64.0353425  77.4734028  68.1962690  75.3837554  77.9899902
  68.4885665  75.9442611  77.2712267  68.7061311  75.6766115  78.7453061
  68.7974298  57.2529295  78.8792520  69.1033175  56.3926659  78.5918435
  69.5226903  57.8446915  78.6791514  55.0898654  67.6559982  77.2674118
  54.8923054  67.0629342  76.5425185  54.5345318  67.3512192  77.9850057
  63.0695378  67.5483088  79.3868711  63.1243988  66.5956925  79.3111188
  62.2586580  67.7042527  79.8710010  61.0087738  66.1660148  77.1459090
  60.1955603  66.4654318  77.5524282  61.5046732  65.7715837  77.8633572
  63.1596316  76.1617905  79.0793355  63.1172494  76.3878751  78.1501887
  64.0759014  75.9281279  79.2279156  66.6061949  66.6301972  85.9773984
  66.9611337  66.8573446  86.8368450  67.2534081  66.9620349  85.3551239
  72.3359686  69.7520408  76.6823313  72.1977585  69.9422004  75.7544502
  71.9795905  70.5139791  77.1391364  60.5001812  63.7378503  82.7620325
  61.1401192  63.5967263  82.0643288  59.6679343  63.4513017  82.3858927
  72.3629066  71.8196935  81.6934585  72.7965573  71.7272224  82.5417639
  73.0760647  71.7954436  81.0554601  61.2762116  73.0380934  78.8755318
  62.0702715  72.5431254  78.6737893  60.5653809  72.5098797  78.5123023
  66.0956961  75.4199029  83.2267685  66.1493983  75.9889966  83.9945401
  65.2271742  75.5900914  82.8621722  57.5844880  67.1824016  74.9515070
  56.6542468  67.1208471  75.1685032  57.6802352  66.6599968  74.1551712
  57.5030429  63.7078828  77.5393312  57.7637246  64.6224162  77.4302472
  58.3247601  63.2403271  77.6889925  58.9755354  65.1216586  84.7092136
  59.6478408  64.9133948  84.0604785  58.1485141  64.9238672  84.2697369
  73.2244616  71.8620636  84.2267470  73.4180506  72.7666446  84.4726745
  73.1245234  71.4028055  85.0606055  64.8780926  61.7478527  86.7257797
  64.2308841  62.4468476  86.6322274  65.6481942  62.1814670  87.0934046
  68.2859724  72.0127379  89.8008351  68.1345231  71.7837930  88.8838434
  68.2764404  72.9697980  89.8139696  65.0545061  69.5859291  84.7854617
  65.9837121  69.7370451  84.6123584  64.6336091  69.6743312  83.9303264
  63.8533392  73.6109956  82.5553155  63.7144478  73.2428740  83.4279093
  63.0647989  74.1257595  82.3837112  64.4481544  78.7119052  73.8978691
  64.6233300  78.2407096  74.7124314  63.7614332  79.3384819  74.1259952
  65.4038608  72.9891559  79.9441992  65.0688440  72.9492329  80.8399642
  64.9042553  72.3236274  79.4712403  59.3782851  68.3959189  85.4694574
  59.2402649  67.6639427  86.0706113  60.2887775  68.3068089  85.1878761
  68.3397799  70.3347593  70.2179052  67.7226970  69.6094421  70.1212105
  67.8714288  71.0956953  69.8746126  62.0065152  68.1079148  84.9578253
  62.7164771  67.4672340  84.9164872  61.9634460  68.3592043  85.8804434
  69.9951931  75.0446501  87.8784832  69.9364477  74.3605721  87.2115416
  70.3971449  75.7865491  87.4265458  60.7194086  65.0944366  86.7773893
  60.1831443  64.6435104  87.4295489  60.1310795  65.2290275  86.0344357
  59.0142630  81.8608415  80.6718551  59.2539228  82.4926939  81.3497570
  58.1711826  81.5096455  80.9583911  60.1296345  64.5533017  69.3400356
  59.2525811  64.4321818  68.9762603  60.6054098  63.7619096  69.0879245
  69.9969338  73.0086085  86.1098812  69.1096117  72.6712007  86.2325211
  70.5667889  72.2769116  86.3467578  51.6498485  69.3410177  79.4341864
  52.3369525  69.0271907  78.8462879  51.4946614  70.2451542  79.1609115
  56.4533207  64.2300373  83.8626887  56.3691396  63.6226043  83.1277297
  55.6315914  64.7209392  83.8636384  63.5270492  77.6687538  83.0760055
  63.4540663  78.4742509  83.5879360  63.0847885  77.8679503  82.2508077
  63.3160271  76.9059308  76.5862877  62.5327793  77.4480988  76.6801101
  64.0153016  77.4233287  76.9857118  66.6256921  62.7153937  79.2297082
  67.1225621  61.9623899  78.9098153  65.8543903  62.7518254  78.6640292
  74.4786679  68.4194303  80.8715374  74.4676555  69.3019018  80.5009307
  73.6104058  68.0665853  80.6769911  65.9869175  77.5674372  85.2318214
  66.6997147  78.2021836  85.1594116  65.4959204  77.6638238  84.4158216
  67.7086702  71.4725624  76.8035506  66.7742981  71.5927087  76.6340210
  67.8863370  70.5698091  76.5395516  63.2091890  64.8571320  78.9568767
  62.8389678  64.3042360  79.6449672  63.7050982  64.2529453  78.4043767
  71.0959253  67.3142944  77.3385540  71.5619705  68.1470935  77.2645843
  71.5466754  66.8487925  78.0430798  61.0381089  75.3168815  86.0523785
  61.7390548  75.9505298  86.2053179  60.5676204  75.6583547  85.2919424
  69.1635484  73.6586765  74.3371692  69.4395328  73.5443359  75.2465566
  68.2939983  73.2604250  74.2983865  69.0675916  59.6823531  81.3776441
  68.1538996  59.9127757  81.5458648  69.4969017  59.7661975  82.2290474
  68.8382375  67.8713422  83.8776335  68.1853825  68.1189330  83.2228788
  69.2162754  67.0577561  83.5438813  65.7989548  77.9073116  77.9804506
  65.9811943  77.0894772  78.4432258  66.6222534  78.1240808  77.5429395
  66.1331714  76.8341301  75.2419554  66.6619480  76.3233755  74.6289716
  66.3959933  76.5183831  76.1065087  64.8869948  68.6133234  90.3642372
  64.2110585  68.5127363  91.0344748  65.7097581  68.4572447  90.8278370
  56.6348807  74.8505170  82.9854888  57.2202243  74.1048858  83.1182792
  56.4373645  75.1609127  83.8691551  59.4887462  77.8856417  78.0017330
  58.8197837  78.3702545  77.5181370  59.3500332  78.1325638  78.9160708
  51.2266461  67.4210770  81.7059331  51.2650561  66.8874361  82.4996449
  50.7206754  66.8945976  81.0870308  63.6292730  79.9200161  84.5999988
  64.1811038  80.0831782  85.3649074  63.9698924  80.5104599  83.9280013
  58.6057224  62.2675311  85.2021873  58.6698550  63.1290142  84.7899271
  58.5424344  61.6549312  84.4694232  58.0809496  64.3398443  88.8494907
  58.7081535  63.9575521  89.4632432  57.2237415  64.1212645  89.2150600
  68.4803605  74.7461419  90.4548643  69.0243509  75.3591377  89.9603598
  67.8990450  75.3040997  90.9715656  54.8575039  66.1474872  74.7813262
  55.1528480  65.2385551  74.7280316  53.9563075  66.1262612  74.4594264
  66.7661118  77.8682137  81.5863670  66.6412257  77.0671876  81.0774616
  67.4240209  78.3628330  81.0977640  58.3869286  64.2230869  80.7640811
  57.6655872  64.8366837  80.6248284  59.1762542  64.7588634  80.6857457
  68.8296026  75.6691157  83.2143221  67.8826362  75.5496508  83.1421547
  69.1778799  74.7813655  83.2969482  61.1895599  61.5585296  87.0381462
  61.7130001  61.8047592  87.8007772  60.9707933  62.3905330  86.6184600
  56.5862881  63.8288970  74.9052587  56.2575587  62.9486349  74.7227693
  56.9402251  63.7736639  75.7928976  65.8342459  75.4643873  79.4147573
  65.6867422  74.5360580  79.5955143  66.6595953  75.4863964  78.9304648
  59.7004704  64.1161940  75.2728065  60.0400776  64.6447861  74.5506673
  60.1476824  64.4542346  76.0486631  69.4376581  76.2872432  80.5012446
  70.3623129  76.0815293  80.3636897  69.2691885  76.0388833  81.4101787
  62.3948145  62.4998991  84.7231133  62.0544965  61.7006804  85.1251813
  61.6887151  62.8000701  84.1507966  63.0464616  59.5848303  83.1758456
  63.8690686  59.1108781  83.0537346  63.2902680  60.3638787  83.6757142
  61.6872851  62.6136561  73.4721358  62.4081213  62.9917814  72.9685075
  61.0638155  63.3325438  73.5756336  65.8303974  63.3181710  74.4079690
  66.0467588  64.2006348  74.1068518  65.3498041  62.9267924  73.6785332
  60.5703195  66.2767424  80.9850435  60.4247776  66.5907727  81.8774716
  60.0928399  66.8952324  80.4321333  62.4299578  63.2669972  81.0331324
  62.4161147  62.3711065  80.6963622  63.1472006  63.2740635  81.6669610
  64.2825709  63.7007312  83.0784452  64.0243487  64.6224383  83.0768782
  63.7510749  63.3037746  83.7684916  69.2271897  76.8058099  75.8574537
  69.4008775  76.2404521  75.1048389  69.7200789  77.6058994  75.6754027
  55.0448857  68.8172768  83.9238096  54.5002325  69.5932576  84.0558370
  55.9228207  69.1643573  83.7657217  61.8336474  62.1484352  76.3018894
  61.9552385  61.2200998  76.5009782  61.5438516  62.1623038  75.3897210
  64.7027664  59.8339262  79.4385614  64.7249361  59.8978595  78.4837594
  65.1195723  58.9943771  79.6326120  75.0811289  69.5694522  77.4764837
  75.5242435  68.8201847  77.0783960  74.2037799  69.5604658  77.0938569
  70.2147070  76.1224863  72.9571435  70.9097975  76.7431556  73.1758750
  70.5570220  75.2720215  73.2323813  55.8314879  67.9442664  86.8168253
  55.0896615  68.0925300  87.4032883  55.5107623  68.2050930  85.9535002
  72.1138493  73.5724569  74.4858766  72.6389817  73.9111842  73.7608086
  72.0260846  72.6371584  74.3021901  63.7758542  77.4858643  86.6148643
  64.0845668  77.2407789  87.4871342  64.5734024  77.6905281  86.1267513
  63.7979154  79.6396552  78.8454019  63.3584144  79.1472931  79.5386876
  64.5487271  79.0969520  78.6046094  56.2771493  75.8308093  78.8478647
  57.1029513  75.5311865  78.4677291  55.9265545  75.0615716  79.2968436
  61.2453026  75.1834561  80.9176321  60.6233035  74.5205266  80.6178549
  61.9157893  75.2095693  80.2349969  54.4780098  73.7494420  79.8067581
  53.6412006  73.3216594  79.6251582  54.4503743  73.9426863  80.7438372
  61.3177553  63.6616349  90.5108827  61.3665709  64.5378472  90.1286597
  61.8600068  63.1193742  89.9380470  71.8032399  74.2057473  89.7909964
  71.0127943  74.1881611  89.2514463  71.5665754  74.7445766  90.5459001
  71.9230274  71.0549939  87.1042693  71.9728279  70.8899946  88.0458215
  71.8144198  70.1877198  86.7140573  60.8066533  73.7338485  74.3934781
  60.9554653  74.4173949  73.7401454  61.6132976  73.7143575  74.9084237
  69.2134037  67.0380867  88.4201999  70.1143899  66.8987332  88.1285997
  69.2882011  67.2035322  89.3600177  63.5476842  64.4147722  87.2655186
  62.6780151  64.7081288  86.9937774  63.7836322  64.9988167  87.9862449
  73.4248471  73.4746880  87.3484714  73.1333279  73.8376861  88.1848175
  72.8120602  72.7613889  87.1698046  74.6244153  71.0399760  79.8687284
  75.4591045  71.4789564  80.0324845  74.7603282  70.5638413  79.0495530
  71.6735659  68.5979495  85.8164772  72.1489781  68.7907141  85.0083623
  70.7501225  68.6538681  85.5708156  58.5619166  69.7603662  75.3995850
  58.3165208  68.8565992  75.5976060  58.7315080  69.7620813  74.4575328
  66.2515876  60.6327339  84.7820606  66.7697820  61.3688366  84.4567095
  65.8971008  60.9391332  85.6167365  57.8314813  65.4932020  72.8982012
  57.1384058  65.5676375  72.2422048  57.5866565  64.7292363  73.4203529
  66.5028470  57.0527621  80.3021503  66.7830224  56.3850810  80.9281929
  67.2879077  57.2456717  79.7896166  64.3061938  76.2286615  71.8646529
  63.7335905  76.8476802  71.4117001  64.8794732  76.7785977  72.3986451
  70.3737328  65.4745255  84.0493078  71.3254751  65.5743353  84.0705302
  70.2040779  64.6823524  84.5591162  68.3951708  62.5600838  84.2352479
  67.8001640  62.8405851  83.5398967  68.1101404  63.0494739  85.0069220
  67.5259198  76.5123765  72.9955111  68.4589871  76.4469327  73.1987987
  67.4382411  77.3480032  72.5369644  70.1547215  75.8289636  69.9559059
  70.0760846  75.4949499  70.8494817  70.9756882  76.3211403  69.9550531
  72.8525406  68.6951375  83.1635377  72.8201726  67.7567376  83.3495061
  73.4626030  68.7735412  82.4301202  64.6908737  67.5647428  69.2062581
  65.6367842  67.4353636  69.2750999  64.3122982  66.8262090  69.6832010
  73.0019895  65.4862418  83.2093660  72.4858943  64.7020875  83.0223589
  73.8859843  65.1581135  83.3740180  70.6630621  59.2303434  79.1689473
  70.4655443  58.9218522  80.0532805  71.2730327  59.9565073  79.2987403
  78.6701956  69.7567382  82.3041414  79.4005344  69.4952670  82.8649117
  78.0608901  69.0196104  82.3443482  76.7517253  67.8975244  82.9015865
  76.0250417  67.7631209  82.2932357  76.3364540  68.2052073  83.7072583
  64.5747429  71.6165174  90.6663238  65.4950439  71.7943773  90.8603285
  64.5397012  70.6721219  90.5142938  53.7929594  66.8103768  79.5916513
  53.4732379  65.9569076  79.2990887  53.2463023  67.0252346  80.3474480
  57.5709502  69.5266209  83.3086019  57.7895512  70.4583316  83.3274053
  57.9835276  69.1674183  84.0940823  64.4913720  60.0334294  75.2961708
  63.6814448  59.6881379  75.6716954  65.1798137  59.7241838  75.8849319
  66.4204268  59.1112341  76.9186004  66.9735307  59.5307794  77.5776028
  66.6574354  58.1848089  76.9608961  62.4437367  65.0999414  92.6988768
  62.3434094  66.0493771  92.6300860  62.2258909  64.7717653  91.8264838
  53.6617854  70.4306679  81.5609635  52.9681326  70.0160632  81.0479589
  54.4090845  70.4727216  80.9643053  69.7983075  61.2212866  76.4264669
  69.2181744  61.8797670  76.0442721  69.5319008  60.3990211  76.0152086
  68.2486642  60.6217924  78.6285989  68.7486420  60.7334458  77.8200308
  68.8922249  60.3178976  79.2686798  62.3068637  68.5296553  91.5153830
  61.8235719  69.3296913  91.7217719  62.3929576  68.5404498  90.5621274
  55.5754597  70.3624933  79.4375649  55.5525285  70.4612620  78.4857533
  55.8855233  71.2090084  79.7592816  58.2341975  72.4201088  83.5522264
  59.1885228  72.3885030  83.4852195  58.0354498  71.9591712  84.3672490
  58.8241357  70.9902204  86.1193062  59.6434246  71.4846283  86.1427899
  59.0978165  70.0734172  86.0910629  68.5807953  63.3812956  75.4821017
  67.6933808  63.6662607  75.2641212  68.9961942  63.2206720  74.6348294
  71.9322489  63.4059477  79.1975356  72.7082879  63.8955930  79.4699973
  71.2070623  63.8317531  79.6547226  74.3695048  64.1187096  80.2549297
  74.9639539  63.8782832  79.5442605  74.4421632  63.3994227  80.8822833
  56.5892204  77.9620707  80.5692462  56.4546672  77.2021108  80.0030460
  56.1724266  78.6861607  80.1021251  67.7251167  73.1457631  69.5769037
  68.4287017  73.3507633  70.1926693  67.0013815  73.7134393  69.8418121
  68.5548977  68.8967492  75.6971307  68.4984178  69.3536044  74.8578940
  69.1077319  68.1358177  75.5194150  72.3653783  64.6857224  76.5221427
  72.1090717  64.2853860  77.3529634  71.7406651  65.4001018  76.3971566
  76.6766121  67.4253297  79.0292718  76.1165679  67.4946487  79.8024280
  76.0709624  67.2494282  78.3092214  59.7461329  78.8590024  80.7810904
  59.6293714  79.8035457  80.6789595  58.9253776  78.5563586  81.1696704
  69.6337864  73.5840160  71.6267497  70.4683468  73.1521359  71.4444972
  69.4722207  73.4122174  72.5544392  69.2883756  70.0872273  72.9923836
  69.2332560  69.9216545  72.0512280  68.6629811  70.7948306  73.1486026
  54.0776271  65.3240338  86.8185259  54.7235135  64.8139292  87.3072484
  53.8693422  66.0609019  87.3928684  66.6029663  72.3921185  92.3177399
  67.4720823  72.5661838  91.9564034  66.1236415  73.2115602  92.1953128
  62.5979882  59.5880382  72.5709155  62.5858551  60.5322222  72.7277426
  63.4903304  59.4050528  72.2768616  60.7715844  79.5118286  83.9966833
  61.6743090  79.5441897  84.3133328  60.5453214  78.5818737  84.0113169
  62.5269446  78.2649273  80.6576911  61.5765077  78.2651134  80.5441284
  62.8301932  77.5182007  80.1412946  66.4132001  56.1823159  76.8255092
  65.6464397  55.6281646  76.9711774  66.8242706  56.2545028  77.6869243
  58.4173762  62.4707955  90.9160273  59.2805224  62.1144760  91.1263597
  57.8439173  62.1321850  91.6035677  78.2622139  84.1009811  81.7222674
  78.9000549  83.9816559  81.0186014  78.1442982  85.0490655  81.7810626
  75.0711845  84.0537239  81.6584199  74.7330357  83.9378304  80.7704733
  75.9401614  83.6528404  81.6385205  70.9298661  85.9072716  77.6481089
  70.3663526  85.8162653  76.8797377  70.8151056  85.0872620  78.1283582
  75.5531628  85.2072091  87.6170404  75.5420269  84.8124889  86.7450908
  75.7152268  84.4738164  88.2104175  68.4763093  87.4023907  80.4865310
  69.2684385  87.0614732  80.0711609  68.7159743  87.5118882  81.4067463
  76.5098220  89.5743683  72.9595554  75.8586200  90.1597764  72.5729568
  77.3042583  90.1049878  73.0190592  70.4353847  86.6632821  73.3582689
  71.2084723  86.1161808  73.2195565  70.7879246  87.5277070  73.5697150
  72.2738890  87.9909203  86.5649588  71.9828756  88.8954834  86.4496254
  72.9095874  88.0325731  87.2793658  73.1995096  85.3686051  83.1550948
  73.7958669  85.1442074  82.4407911  73.2570068  84.6270797  83.7576396
  72.7720125  82.8225487  70.9901139  73.0245645  82.3007008  70.2284602
  71.8344684  82.6591632  71.0927822  77.8163408  81.8261265  78.7975882
  78.6026497  81.4080688  78.4466299  78.0802112  82.7307357  78.9657530
  77.9873485  87.2634115  73.4964539  77.3519318  87.3368742  74.2085443
  77.6570891  87.8527714  72.8183618  83.2171835  81.7636498  79.7008860
  83.9497007  81.1935715  79.9346690  82.4611190  81.3758099  80.1415366
  72.4916414  84.7253593  73.1925514  72.3752672  84.0498496  73.8606598
  72.6018673  84.2385967  72.3757667  74.8347954  84.1863740  76.8972203
  74.4706162  83.6594361  77.6085124  75.6915070  83.7962209  76.7238688
  80.7397255  75.4758072  84.1603469  80.4080580  76.3453483  83.9364684
  80.1442868  75.1594356  84.8397499  74.4753441  79.2153640  71.8933551
  74.6427844  80.0833876  72.2604022  74.2850611  79.3780921  70.9694841
  77.2328775  87.6770618  83.5599382  76.9329498  88.5795657  83.4515189
  76.8879834  87.4102802  84.4120535  70.6841256  84.1284415  79.5936086
  69.7591753  83.9960629  79.8013778  70.9325669  84.9078635  80.0906029
  80.6325918  80.1953159  81.2396819  79.7242796  80.1268567  80.9455580
  80.5813514  80.6725104  82.0678645  74.4542662  81.6711297  72.8780218
  74.3342288  82.1168348  73.7165698  73.7595251  82.0196615  72.3193756
  68.0450067  83.7717689  80.4279875  68.1742448  84.0252168  81.3419287
  67.3647518  84.3645397  80.1084530  72.2149554  94.4414939  76.5270349
  72.1373584  95.3922764  76.6058830  71.6111198  94.0960811  77.1845276
  74.7066784  81.6142804  89.1831716  73.9300118  82.1736724  89.1734581
  75.3457347  82.0999587  89.7046586  82.4987565  78.3969597  83.0174693
  81.8561945  78.6902130  82.3714488  81.9942493  78.2822517  83.8227890
  80.1527728  82.1432770  73.7060552  81.0645585  82.3760157  73.5308250
  79.6437376  82.7269814  73.1435631  72.9613156  84.4228258  88.7449683
  73.7027841  84.9613302  88.4684507  72.2550142  85.0494546  88.9021235
  78.4368496  86.5657398  87.3421845  78.8451852  86.1239809  86.5976477
  77.7145758  85.9910026  87.5956038  74.7899566  81.5030005  84.7155402
  75.6360761  81.9269418  84.8590051  74.7298204  80.8463629  85.4093965
  78.7597311  87.1258589  81.0974134  78.1306173  87.2904303  80.3950202
  78.3722973  87.5400198  81.8685098  82.6386543  88.0613027  78.4518497
  81.9537581  88.4411928  77.9015531  82.7230392  88.6708353  79.1850445
  77.9399012  79.1634373  86.3736575  77.6959943  79.9176434  85.8370851
  78.2158942  79.5419721  87.2083822  79.8937474  85.7072986  85.0513841
  80.1054370  86.3504745  84.3748222  79.8467223  84.8735302  84.5835771
  77.4963703  78.3190806  81.9550413  76.6348182  78.6172060  82.2467151
  77.5226138  78.5361205  81.0231446  74.3125273  86.8632997  78.3624219
  74.7763618  87.1420700  77.5728841  74.0482071  85.9616441  78.1797309
  71.2049354  86.4104478  81.3003982  71.7750711  86.8391747  80.6621467
  71.7957466  86.1287063  81.9988168  73.2494159  82.9856149  75.1713784
  73.9518202  83.4377193  75.6387710  72.9174787  82.3439968  75.7993677
  71.6974520  81.5767906  89.5464993  71.0673181  82.2584187  89.7800390
  71.5910608  81.4650987  88.6018132  66.9919493  81.2439702  80.4730917
  66.2018547  81.4997230  79.9971028  67.4830740  82.0588040  80.5782958
  81.0083302  88.5844941  83.2236198  81.8300746  88.1825128  82.9418880
  81.0045705  88.4813175  84.1752314  68.9434238  81.6084281  77.4314394
  68.1465401  81.7202975  77.9497890  68.7159830  81.9470933  76.5655285
  74.7739906  88.1328984  85.3796909  74.8384338  88.5949391  86.2155081
  74.0650830  87.5026349  85.5079219  65.2757196  81.4970192  82.9045908
  65.5265234  82.3817202  83.1703484  65.8116744  81.3174794  82.1321000
  89.0989295  84.9283689  79.5721170  88.3453004  84.3591088  79.4165174
  89.2336836  84.8946354  80.5191804  74.4887923  89.7997092  75.2475889
  74.3533598  90.6448627  75.6760737  75.0297736  90.0016369  74.4841823
  70.9755263  75.8788672  91.9090244  70.5822209  75.3254870  92.5837889
  71.7921403  76.1899250  92.2996762  67.9417321  87.3172530  75.8203814
  68.4541841  88.1115780  75.9709379  68.5940034  86.6198820  75.7537416
  69.7512205  90.4338286  77.9026567  69.9278834  91.3556251  77.7147551
  70.5469039  90.1196705  78.3320947  73.8923224  77.2946551  89.5010501
  74.6332937  77.8953704  89.4214963  74.1241147  76.5524188  88.9428543
  69.0364562  82.4802918  87.7788731  68.9218077  81.5788175  88.0795829
  68.1809080  82.7266615  87.4273547  70.8743521  91.9516460  83.9036910
  71.4250946  91.8233523  83.1313904  70.0354997  92.2511349  83.5531803
  74.6710692  88.2167588  88.2481141  75.2039029  87.4555876  88.0180449
  74.1424773  87.9241239  88.9905295  77.8380387  73.3227654  83.7774783
  77.4944656  74.2129295  83.7013893  78.2059349  73.1329311  82.9144368
  65.9066237  85.6461184  76.5963385  66.7441460  86.0558192  76.3797092
  66.0844505  84.7060626  76.5663579  77.8030670  83.3136265  72.2847218
  77.2877293  84.0840869  72.5235605  77.5307978  82.6401401  72.9080279
  75.3877781  78.1585966  77.3432456  74.5319377  77.7692816  77.1638095
  75.8004732  78.2377926  76.4832242  76.9176927  75.6932309  81.7424016
  76.4141723  75.6562444  80.9291821  77.2107534  76.6025051  81.8020672
  73.1619813  75.7771038  80.7490198  74.0272810  75.5813847  80.3896087
  73.2297322  75.5481390  81.6759554  82.7764944  86.0668619  74.2200391
  81.9994387  85.7279779  73.7755553  83.4556425  86.0721243  73.5455356
  77.5916973  81.1863357  74.1106999  77.2867108  81.5009506  74.9617142
  78.5447415  81.2644777  74.1534332  76.0363405  87.3453580  75.7599953
  75.5084766  86.6106340  75.4473190  75.5350907  88.1228256  75.5139921
  81.0156251  85.5402601  80.8766999  80.3579925  86.2301862  80.9647128
  81.8196650  85.9299033  81.2200986  70.7682132  78.0073246  78.1206564
  71.3425884  77.7848428  77.3879757  71.3553115  78.0761941  78.8735166
  79.8261709  83.8946973  78.9270941  80.3393591  84.5276965  79.4292651
  80.4762933  83.2948169  78.5614301  71.0951719  80.0377707  72.1402450
  70.2589032  80.3752394  72.4611724  70.9556489  79.9026687  71.2029587
  73.0704800  74.8814495  76.8481634  72.4169212  74.5663512  76.2238249
  73.0285274  74.2590236  77.5741457  74.1816005  85.1633790  68.7634926
  73.2743067  84.9323044  68.9626075  74.6787037  84.3671410  68.9508907
  77.0884084  93.8731298  71.6831612  76.4145782  94.1762994  72.2916570
  77.4749906  94.6760378  71.3337069  76.3042540  81.3696429  81.1729281
  75.3865102  81.5911376  81.0150969  76.7202684  81.4442739  80.3140989
  77.0877588  82.7687845  76.3031962  77.8349407  83.2809242  75.9939084
  77.3569178  82.4471897  77.1636355  75.3604238  85.2646385  73.2858916
  74.4515458  84.9805418  73.3831386  75.3899322  85.6845464  72.4262223
  80.5923506  88.8752975  77.0550084  80.1385833  88.0343885  77.1115274
  79.9617472  89.5114373  77.3924864  79.5356425  79.8044961  78.2850751
  78.7979182  79.2922347  78.6160994  79.7883199  79.3645342  77.4734028
  79.0356445  90.7129471  77.9899902  79.3279419  91.2734529  77.2712267
  79.5455065  91.0058032  78.7453061  79.6368053  72.5821213  78.8792520
  79.9426929  71.7218576  78.5918435  80.3620657  73.1738833  78.6791514
  65.9292409  82.9851899  77.2674118  65.7316808  82.3921260  76.5425185
  65.3739073  82.6804110  77.9850057  73.9089132  82.8775006  79.3868711
  73.9637742  81.9248842  79.3111188  73.0980334  83.0334445  79.8710010
  75.0580326  86.8055129  70.6246995  74.6199756  86.0890988  70.1652632
  75.7990767  87.0331244  70.0632086  71.8481492  81.4952066  77.1459090
  71.0349358  81.7946236  77.5524282  72.3440486  81.1007754  77.8633572
  73.9990070  91.4909823  79.0793355  73.9566249  91.7170669  78.1501887
  74.9152769  91.2573197  79.2279156  77.4455704  81.9593890  85.9773984
  77.8005092  82.1865363  86.8368450  78.0927835  82.2912267  85.3551239
  83.1753441  85.0812326  76.6823313  83.0371339  85.2713922  75.7544502
  82.8189660  85.8431709  77.1391364  71.3395567  79.0670421  82.7620325
  71.9794946  78.9259180  82.0643288  70.5073098  78.7804935  82.3858927
  83.2022820  87.1488853  81.6934585  83.6359327  87.0564142  82.5417639
  83.9154401  87.1246353  81.0554601  72.1155871  88.3672852  78.8755318
  72.9096469  87.8723172  78.6737893  71.4047563  87.8390715  78.5123023
  76.9350715  90.7490947  83.2267685  76.9887738  91.3181883  83.9945401
  76.0665497  90.9192832  82.8621722  68.4238634  82.5115933  74.9515070
  67.4936222  82.4500389  75.1685032  68.5196106  81.9891886  74.1551712
  68.3424183  79.0370746  77.5393312  68.6031001  79.9516079  77.4302472
  69.1641356  78.5695189  77.6889925  69.8149109  80.4508503  84.7092136
  70.4872162  80.2425865  84.0604785  68.9878895  80.2530589  84.2697369
  84.0638370  87.1912554  84.2267470  84.2574260  88.0958364  84.4726745
  83.9638988  86.7319973  85.0606055  75.7174681  77.0770444  86.7257797
  75.0702596  77.7760394  86.6322274  76.4875696  77.5106588  87.0934046
  75.8938815  84.9151209  84.7854617  76.8230875  85.0662369  84.6123584
  75.4729845  85.0035230  83.9303264  74.6927147  88.9401874  82.5553155
  74.5538233  88.5720658  83.4279093  73.9041743  89.4549513  82.3837112
  75.2875299  94.0410970  73.8978691  75.4627055  93.5699013  74.7124314
  74.6008087  94.6676736  74.1259952  76.2432362  88.3183476  79.9441992
  75.9082195  88.2784246  80.8399642  75.7436308  87.6528192  79.4712403
  70.2176606  83.7251106  85.4694574  70.0796404  82.9931345  86.0706113
  71.1281529  83.6360006  85.1878761  79.1791554  85.6639511  70.2179052
  78.5620724  84.9386339  70.1212105  78.7108042  86.4248871  69.8746126
  72.8458907  83.4371066  84.9578253  73.5558525  82.7964258  84.9164872
  72.8028215  83.6883960  85.8804434  71.5587841  80.4236283  86.7773893
  71.0225198  79.9727022  87.4295489  70.9704549  80.5582192  86.0344357
  69.8536384  97.1900333  80.6718551  70.0932982  97.8218857  81.3497570
  69.0105581  96.8388373  80.9583911  70.9690100  79.8824935  69.3400356
  70.0919566  79.7613736  68.9762603  71.4447853  79.0911013  69.0879245
  80.8363093  88.3378003  86.1098812  79.9489871  88.0003925  86.2325211
  81.4061644  87.6061034  86.3467578  62.4892240  84.6702095  79.4341864
  63.1763280  84.3563825  78.8462879  62.3340368  85.5743459  79.1609115
  67.2926962  79.5592291  83.8626887  67.2085151  78.9517961  83.1277297
  66.4709668  80.0501309  83.8636384  74.3664246  92.9979455  83.0760055
  74.2934417  93.8034427  83.5879360  73.9241639  93.1971421  82.2508077
  74.1554026  92.2351225  76.5862877  73.3721548  92.7772905  76.6801101
  74.8546771  92.7525205  76.9857118  77.4650676  78.0445855  79.2297082
  77.9619375  77.2915817  78.9098153  76.6937657  78.0810171  78.6640292
  85.3180433  83.7486220  80.8715374  85.3070309  84.6310936  80.5009307
  84.4497813  83.3957771  80.6769911  76.8262930  92.8966289  85.2318214
  77.5390902  93.5313754  85.1594116  76.3352958  92.9930155  84.4158216
  78.5480456  86.8017542  76.8035506  77.6136735  86.9219004  76.6340210
  78.7257125  85.8990009  76.5395516  74.0485644  80.1863238  78.9568767
  73.6783432  79.6334278  79.6449672  74.5444737  79.5821371  78.4043767
  81.9353008  82.6434861  77.3385540  82.4013460  83.4762853  77.2645843
  82.3860508  82.1779843  78.0430798  71.8774843  90.6460733  86.0523785
  72.5784303  91.2797216  86.2053179  71.4069958  90.9875464  85.2919424
  80.0029239  88.9878683  74.3371692  80.2789083  88.8735277  75.2465566
  79.1333738  88.5896167  74.2983865  79.9069671  75.0115448  81.3776441
  78.9932750  75.2419675  81.5458648  80.3362772  75.0953892  82.2290474
  79.6776129  83.2005340  83.8776335  79.0247579  83.4481248  83.2228788
  80.0556509  82.3869478  83.5438813  76.6383303  93.2365033  77.9804506
  76.8205697  92.4186689  78.4432258  77.4616289  93.4532726  77.5429395
  76.9725468  92.1633218  75.2419554  77.5013235  91.6525673  74.6289716
  77.2353688  91.8475749  76.1065087  75.7263702  83.9425151  90.3642372
  75.0504339  83.8419281  91.0344748  76.5491336  83.7864365  90.8278370
  67.4742561  90.1797088  82.9854888  68.0595998  89.4340776  83.1182792
  67.2767400  90.4901044  83.8691551  70.3281216  93.2148335  78.0017330
  69.6591592  93.6994463  77.5181370  70.1894086  93.4617556  78.9160708
  62.0660216  82.7502688  81.7059331  62.1044315  82.2166279  82.4996449
  61.5600509  82.2237893  81.0870308  74.4686485  95.2492079  84.5999988
  75.0204793  95.4123700  85.3649074  74.8092678  95.8396516  83.9280013
  69.4450978  77.5967228  85.2021873  69.5092305  78.4582059  84.7899271
  69.3818098  76.9841230  84.4694232  68.9203251  79.6690361  88.8494907
  69.5475289  79.2867438  89.4632432  68.0631170  79.4504563  89.2150600
  65.6968793  81.4766790  74.7813262  65.9922235  80.5677469  74.7280316
  64.7956829  81.4554530  74.4594264  77.6054872  93.1974054  81.5863670
  77.4806012  92.3963794  81.0774616  78.2633963  93.6920248  81.0977640
  69.2263040  79.5522787  80.7640811  68.5049626  80.1658754  80.6248284
  70.0156296  80.0880552  80.6857457  79.6689781  90.9983074  83.2143221
  78.7220116  90.8788425  83.1421547  80.0172554  90.1105572  83.2969482
  72.0289354  76.8877213  87.0381462  72.5523756  77.1339510  87.8007772
  71.8101687  77.7197248  86.6184600  67.4256635  79.1580888  74.9052587
  67.0969341  78.2778267  74.7227693  67.7796006  79.1028556  75.7928976
  76.6736214  90.7935791  79.4147573  76.5261176  89.8652498  79.5955143
  77.4989707  90.8155881  78.9304648  70.5398458  79.4453858  75.2728065
  70.8794531  79.9739779  74.5506673  70.9870579  79.7834264  76.0486631
  80.2770336  91.6164349  80.5012446  81.2016883  91.4107211  80.3636897
  80.1085639  91.3680750  81.4101787  73.2341899  77.8290908  84.7231133
  72.8938719  77.0298721  85.1251813  72.5280905  78.1292619  84.1507966
  73.8858371  74.9140221  83.1758456  74.7084440  74.4400699  83.0537346
  74.1296434  75.6930704  83.6757142  72.5266605  77.9428479  73.4721358
  73.2474968  78.3209732  72.9685075  71.9031909  78.6617356  73.5756336
  76.6697728  78.6473628  74.4079690  76.8861343  79.5298266  74.1068518
  76.1891795  78.2559842  73.6785332  71.4096950  81.6059341  80.9850435
  71.2641530  81.9199644  81.8774716  70.9322153  82.2244242  80.4321333
  73.2693332  78.5961889  81.0331324  73.2554901  77.7002983  80.6963622
  73.9865761  78.6032553  81.6669610  75.1219463  79.0299230  83.0784452
  74.8637241  79.9516300  83.0768782  74.5904504  78.6329664  83.7684916
  80.0665652  92.1350017  75.8574537  80.2402529  91.5696439  75.1048389
  80.5594543  92.9350912  75.6754027  65.8842612  84.1464686  83.9238096
  65.3396080  84.9224494  84.0558370  66.7621962  84.4935490  83.7657217
  72.6730228  77.4776270  76.3018894  72.7946140  76.5492916  76.5009782
  72.3832271  77.4914956  75.3897210  75.5421419  75.1631180  79.4385614
  75.5643116  75.2270513  78.4837594  75.9589478  74.3235689  79.6326120
  85.9205043  84.8986440  77.4764837  86.3636189  84.1493765  77.0783960
  85.0431553  84.8896576  77.0938569  81.0540824  91.4516781  72.9571435
  81.7491729  92.0723474  73.1758750  81.3963975  90.6012132  73.2323813
  66.6708634  83.2734582  86.8168253  65.9290370  83.4217217  87.4032883
  66.3501378  83.5342848  85.9535002  82.9532248  88.9016487  74.4858766
  83.4783572  89.2403759  73.7608086  82.8654600  87.9663502  74.3021901
  74.6152296  92.8150560  86.6148643  74.9239423  92.5699707  87.4871342
  75.4127778  93.0197199  86.1267513  74.6372908  94.9688470  78.8454019
  74.1977899  94.4764849  79.5386876  75.3881025  94.4261438  78.6046094
  67.1165247  91.1600011  78.8478647  67.9423267  90.8603783  78.4677291
  66.7659299  90.3907633  79.2968436  72.0846780  90.5126479  80.9176321
  71.4626790  89.8497184  80.6178549  72.7551647  90.5387611  80.2349969
  65.3173852  89.0786337  79.8067581  64.4805761  88.6508512  79.6251582
  65.2897498  89.2718781  80.7438372  72.1571308  78.9908267  90.5108827
  72.2059463  79.8670390  90.1286597  72.6993822  78.4485660  89.9380470
  82.7624029  86.3841857  87.1042693  82.8122034  86.2191864  88.0458215
  82.6537952  85.5169116  86.7140573  71.6460287  89.0630402  74.3934781
  71.7948408  89.7465867  73.7401454  72.4526731  89.0435492  74.9084237
  80.0527791  82.3672785  88.4201999  80.9537654  82.2279250  88.1285997
  80.1275766  82.5327239  89.3600177  74.3870596  79.7439639  87.2655186
  73.5173906  80.0373205  86.9937774  74.6230077  80.3280084  87.9862449
  85.4637908  86.3691678  79.8687284  86.2984799  86.8081482  80.0324845
  85.5997037  85.8930331  79.0495530  82.5129414  83.9271413  85.8164772
  82.9883535  84.1199059  85.0083623  81.5894979  83.9830599  85.5708156
  69.4012920  85.0895580  75.3995850  69.1558962  84.1857910  75.5976060
  69.5708835  85.0912730  74.4575328  77.0909630  75.9619256  84.7820606
  77.6091574  76.6980283  84.4567095  76.7364763  76.2683250  85.6167365
  68.6708568  80.8223938  72.8982012  67.9777813  80.8968293  72.2422048
  68.4260320  80.0584281  73.4203529  77.3422224  72.3819539  80.3021503
  77.6223978  71.7142728  80.9281929  78.1272831  72.5748634  79.7896166
  75.1455693  91.5578533  71.8646529  74.5729660  92.1768720  71.4117001
  75.7188487  92.1077894  72.3986451  81.2131083  80.8037173  84.0493078
  82.1648506  80.9035271  84.0705302  81.0434533  80.0115441  84.5591162
  79.2345462  77.8892756  84.2352479  78.6395394  78.1697769  83.5398967
  78.9495159  78.3786657  85.0069220  78.3652953  91.8415683  72.9955111
  79.2983626  91.7761245  73.1987987  78.2776165  92.6771950  72.5369644
  80.9940969  91.1581553  69.9559059  80.9154601  90.8241417  70.8494817
  81.8150636  91.6503321  69.9550531  83.6919161  84.0243293  83.1635377
  83.6595481  83.0859293  83.3495061  84.3019784  84.1027329  82.4301202
  75.5302491  82.8939346  69.2062581  76.4761596  82.7645554  69.2750999
  75.1516736  82.1554007  69.6832010  83.8413649  80.8154336  83.2093660
  83.3252698  80.0312793  83.0223589  84.7253598  80.4873053  83.3740180
  81.5024376  74.5595352  79.1689473  81.3049197  74.2510440  80.0532805
  82.1124081  75.2856990  79.2987403  89.5095710  85.0859299  82.3041414
  90.2399099  84.8244588  82.8649117  88.9002656  84.3488021  82.3443482
  87.5911007  83.2267162  82.9015865  86.8644171  83.0923127  82.2932357
  87.1758294  83.5343991  83.7072583  73.7145409  80.8189322  69.1417467
  72.8076864  80.5222435  69.2180180  73.9921390  80.5219140  68.2751753
  64.6323349  82.1395685  79.5916513  64.3126133  81.2860994  79.2990887
  64.0856777  82.3544263  80.3474480  68.4103256  84.8558126  83.3086019
  68.6289266  85.7875234  83.3274053  68.8229030  84.4966101  84.0940823
  75.3307474  75.3626212  75.2961708  74.5208203  75.0173297  75.6716954
  76.0191891  75.0533755  75.8849319  77.2598023  74.4404258  76.9186004
  77.8129061  74.8599712  77.5776028  77.4968109  73.5140007  76.9608961
  73.2831122  80.4291332  92.6988768  73.1827849  81.3785689  92.6300860
  73.0652664  80.1009571  91.8264838  72.4844193  77.6776257  69.2829446
  73.3463357  78.0031155  69.5425263  72.6694537  76.8907753  68.7702512
  64.5011609  85.7598597  81.5609635  63.8075080  85.3452550  81.0479589
  65.2484600  85.8019133  80.9643053  80.6376830  76.5504784  76.4264669
  80.0575499  77.2089588  76.0442721  80.3712762  75.7282128  76.0152086
  79.0880396  75.9509841  78.6285989  79.5880174  76.0626376  77.8200308
  79.7316004  75.6470894  79.2686798  73.1462392  83.8588471  91.5153830
  72.6629474  84.6588831  91.7217719  73.2323331  83.8696416  90.5621274
  66.4148351  85.6916851  79.4375649  66.3919040  85.7904538  78.4857533
  66.7248988  86.5382001  79.7592816  69.0735729  87.7493006  83.5522264
  70.0278983  87.7176948  83.4852195  68.8748253  87.2883629  84.3672490
  69.6635111  86.3194122  86.1193062  70.4828000  86.8138200  86.1427899
  69.9371919  85.4026090  86.0910629  79.4201708  78.7104874  75.4821017
  78.5327563  78.9954525  75.2641212  79.8355697  78.5498637  74.6348294
  82.7716244  78.7351395  79.1975356  83.5476634  79.2247847  79.4699973
  82.0464378  79.1609449  79.6547226  85.2088802  79.4479014  80.2549297
  85.8033293  79.2074750  79.5442605  85.2815386  78.7286145  80.8822833
  67.4285958  93.2912625  80.5692462  67.2940426  92.5313026  80.0030460
  67.0118020  94.0153525  80.1021251  78.5644921  88.4749549  69.5769037
  79.2680771  88.6799551  70.1926693  77.8407570  89.0426311  69.8418121
  79.3942731  84.2259410  75.6971307  79.3377933  84.6827961  74.8578940
  79.9471074  83.4650095  75.5194150  83.2047537  80.0149142  76.5221427
  82.9484472  79.6145777  77.3529634  82.5800405  80.7292936  76.3971566
  87.5159875  82.7545215  79.0292718  86.9559433  82.8238404  79.8024280
  86.9103379  82.5786200  78.3092214  70.5855084  94.1881942  80.7810904
  70.4687468  95.1327375  80.6789595  69.7647530  93.8855504  81.1696704
  80.4731619  88.9132078  71.6267497  81.3077222  88.4813276  71.4444972
  80.3115961  88.7414092  72.5544392  80.1277511  85.4164191  72.9923836
  80.0726314  85.2508463  72.0512280  79.5023566  86.1240224  73.1486026
  64.9170026  80.6532256  86.8185259  65.5628889  80.1431210  87.3072484
  64.7087177  81.3900937  87.3928684  73.4373636  74.9172300  72.5709155
  73.4252306  75.8614140  72.7277426  74.3297058  74.7342446  72.2768616
  71.6109598  94.8410204  83.9966833  72.5136845  94.8733814  84.3133328
  71.3846968  93.9110655  84.0113169  73.3663200  93.5941191  80.6576911
  72.4158831  93.5943052  80.5441284  73.6695686  92.8473925  80.1412946
  77.2525756  71.5115077  76.8255092  76.4858151  70.9573563  76.9711774
  77.6636461  71.5836946  77.6869243  69.2567517  77.7999873  90.9160273
  70.1198978  77.4436677  91.1263597  68.6832927  77.4613767  91.6035677
  81.7692416 101.2364633  77.6481089  81.2057281 101.1454570  76.8797377
  81.6544811 100.4164538  78.1283582  81.2747601 101.9924738  73.3582689
  82.0478477 101.4453725  73.2195565  81.6273000 102.8568988  73.5697150
  83.6113879  98.1517404  70.9901139  83.8639400  97.6298926  70.2284602
  82.6738438  97.9883550  71.0927822  88.8267239 102.5926033  73.4964539
  88.1913072 102.6660660  74.2085443  88.4964646 103.1819632  72.8183618
  83.3310168 100.0545510  73.1925514  83.2146426  99.3790414  73.8606598
  83.4412428  99.5677884  72.3757667  85.6741709  99.5155658  76.8972203
  85.3099916  98.9886278  77.6085124  86.5308825  99.1254127  76.7238688
  85.3147196  94.5445557  71.8933551  85.4821598  95.4125794  72.2604022
  85.1244365  94.7072839  70.9694841  81.5235011  99.4576333  79.5936086
  80.5985507  99.3252547  79.8013778  81.7719424 100.2370552  80.0906029
  85.2936417  97.0003215  72.8780218  85.1736042  97.4460265  73.7165698
  84.5989005  97.3488532  72.3193756  78.8843822  99.1009606  80.4279875
  79.0136203  99.3544085  81.3419287  78.2041273  99.6937314  80.1084530
  90.9921483  97.4724688  73.7060552  91.9039339  97.7052075  73.5308250
  90.4831130  98.0561732  73.1435631  84.0887913  98.3148067  75.1713784
  84.7911957  98.7669110  75.6387710  83.7568542  97.6731886  75.7993677
  77.8313247  96.5731619  80.4730917  77.0412301  96.8289148  79.9971028
  78.3224495  97.3879957  80.5782958  79.7827993  96.9376199  77.4314394
  78.9859156  97.0494893  77.9497890  79.5553585  97.2762851  76.5655285
  76.1150950  96.8262110  82.9045908  76.3658989  97.7109120  83.1703484
  76.6510499  96.6466711  82.1321000  85.3281678 105.1289009  75.2475889
  85.1927353 105.9740545  75.6760737  85.8691490 105.3308287  74.4841823
  78.7811075 102.6464447  75.8203814  79.2935596 103.4407698  75.9709379
  79.4333788 101.9490738  75.7537416  88.6774141  88.6519571  83.7774783
  88.3338411  89.5421213  83.7013893  89.0453104  88.4621229  82.9144368
  76.7459992 100.9753102  76.5963385  77.5835214 101.3850110  76.3797092
  76.9238260 100.0352544  76.5663579  88.6424424  98.6428182  72.2847218
  88.1271048  99.4132787  72.5235605  88.3701733  97.9693319  72.9080279
  86.2271535  93.4877883  77.3432456  85.3713131  93.0984734  77.1638095
  86.6398487  93.5669844  76.4832242  87.7570682  91.0224226  81.7424016
  87.2535477  90.9854362  80.9291821  88.0501289  91.9316969  81.8020672
  84.0013568  91.1062956  80.7490198  84.8666564  90.9105765  80.3896087
  84.0691077  90.8773308  81.6759554  88.4310727  96.5155274  74.1106999
  88.1260863  96.8301424  74.9617142  89.3841169  96.5936694  74.1534332
  86.8757159 102.6745498  75.7599953  86.3478521 101.9398257  75.4473190
  86.3744662 103.4520174  75.5139921  81.6075887  93.3365164  78.1206564
  82.1819639  93.1140346  77.3879757  82.1946869  93.4053859  78.8735166
  81.9345474  95.3669625  72.1402450  81.0982786  95.7044312  72.4611724
  81.7950243  95.2318605  71.2029587  83.9098554  90.2106413  76.8481634
  83.2562967  89.8955430  76.2238249  83.8679029  89.5882153  77.5741457
  85.0209759 100.4925708  68.7634926  84.1136821 100.2614962  68.9626075
  85.5180791  99.6963327  68.9508907  87.9271343  98.0979762  76.3031962
  88.6743162  98.6101159  75.9939084  88.1962932  97.7763815  77.1636355
  86.1997993 100.5938303  73.2858916  85.2909212 100.3097336  73.3831386
  86.2293077 101.0137382  72.4262223  90.3750180  95.1336878  78.2850751
  89.6372937  94.6214265  78.6160994  90.6276953  94.6937260  77.4734028
  90.4761807  87.9113130  78.8792520  90.7820684  87.0510494  78.5918435
  91.2014412  88.5030751  78.6791514  76.7686163  98.3143817  77.2674118
  76.5710563  97.7213178  76.5425185  76.2132827  98.0096027  77.9850057
  84.7482887  98.2066924  79.3868711  84.8031497  97.2540760  79.3111188
  83.9374089  98.3626363  79.8710010  85.8974081 102.1347047  70.6246995
  85.4593510 101.4182906  70.1652632  86.6384521 102.3623161  70.0632086
  82.6875247  96.8243983  77.1459090  81.8743112  97.1238154  77.5524282
  83.1834241  96.4299672  77.8633572  82.1789321  94.3962339  82.7620325
  82.8188701  94.2551098  82.0643288  81.3466852  94.1096852  82.3858927
  79.2632389  97.8407851  74.9515070  78.3329977  97.7792306  75.1685032
  79.3589861  97.3183804  74.1551712  79.1817938  94.3662664  77.5393312
  79.4424755  95.2807997  77.4302472  80.0035110  93.8987106  77.6889925
  90.0185308 100.9931428  70.2179052  89.4014479 100.2678256  70.1212105
  89.5501797 101.7540789  69.8746126  81.8083854  95.2116853  69.3400356
  80.9313320  95.0905653  68.9762603  82.2841607  94.4202931  69.0879245
  73.3285994  99.9994012  79.4341864  74.0157034  99.6855742  78.8462879
  73.1734123 100.9035377  79.1609115  78.1320716  94.8884209  83.8626887
  78.0478905  94.2809878  83.1277297  77.3103423  95.3793227  83.8636384
  88.3044430  93.3737772  79.2297082  88.8013130  92.6207735  78.9098153
  87.5331412  93.4102089  78.6640292  84.8879399  95.5155155  78.9568767
  84.5177186  94.9626196  79.6449672  85.3838491  94.9113289  78.4043767
  90.7463425  90.3407366  81.3776441  89.8326505  90.5711593  81.5458648
  91.1756526  90.4245810  82.2290474  72.9053970  98.0794606  81.7059331
  72.9438070  97.5458196  82.4996449  72.3994263  97.5529811  81.0870308
  80.2844733  92.9259146  85.2021873  80.3486059  93.7873977  84.7899271
  80.2211853  92.3133148  84.4694232  76.5362548  96.8058708  74.7813262
  76.8315989  95.8969386  74.7280316  75.6350584  96.7846447  74.4594264
  80.0656795  94.8814704  80.7640811  79.3443381  95.4950672  80.6248284
  80.8550051  95.4172469  80.6857457  78.2650390  94.4872805  74.9052587
  77.9363096  93.6070184  74.7227693  78.6189760  94.4320474  75.7928976
  81.3792213  94.7745775  75.2728065  81.7188285  95.3031697  74.5506673
  81.8264333  95.1126181  76.0486631  84.7252125  90.2432138  83.1758456
  85.5478195  89.7692617  83.0537346  84.9690189  91.0222622  83.6757142
  83.3660360  93.2720397  73.4721358  84.0868722  93.6501650  72.9685075
  82.7425664  93.9909274  73.5756336  87.5091483  93.9765546  74.4079690
  87.7255097  94.8590184  74.1068518  87.0285550  93.5851759  73.6785332
  82.2490704  96.9351259  80.9850435  82.1035285  97.2491562  81.8774716
  81.7715908  97.5536159  80.4321333  84.1087087  93.9253807  81.0331324
  84.0948656  93.0294900  80.6963622  84.8259515  93.9324471  81.6669610
  83.5123983  92.8068187  76.3018894  83.6339894  91.8784833  76.5009782
  83.2226025  92.8206873  75.3897210  86.3815173  90.4923098  79.4385614
  86.4036870  90.5562431  78.4837594  86.7983232  89.6527606  79.6326120
  82.4854042 104.3922320  74.3934781  82.6342162 105.0757784  73.7401454
  83.2920485 104.3727410  74.9084237  80.2406675 100.4187498  75.3995850
  79.9952717  99.5149828  75.5976060  80.4102589 100.4204648  74.4575328
  79.5102322  96.1515855  72.8982012  78.8171567  96.2260210  72.2422048
  79.2654074  95.3876199  73.4203529  88.1815979  87.7111457  80.3021503
  88.4617733  87.0434646  80.9281929  88.9666586  87.9040552  79.7896166
  86.3696246  98.2231263  69.2062581  87.3155351  98.0937471  69.2750999
  85.9910491  97.4845925  69.6832010  92.3418130  89.8887269  79.1689473
  92.1442952  89.5802357  80.0532805  92.9517836  90.6148908  79.2987403
  84.5539163  96.1481240  69.1417467  83.6470618  95.8514352  69.2180180
  84.8315144  95.8511058  68.2751753  75.4717103  97.4687603  79.5916513
  75.1519888  96.6152911  79.2990887  74.9250532  97.6836181  80.3474480
  86.1701229  90.6918129  75.2961708  85.3601957  90.3465214  75.6716954
  86.8585646  90.3825673  75.8849319  88.0991777  89.7696176  76.9186004
  88.6522816  90.1891630  77.5776028  88.3361863  88.8431924  76.9608961
  83.3237948  93.0068175  69.2829446  84.1857112  93.3323073  69.5425263
  83.5088292  92.2199671  68.7702512  75.3405363 101.0890514  81.5609635
  74.6468835 100.6744467  81.0479589  76.0878354 101.1311051  80.9643053
  91.4770584  91.8796701  76.4264669  90.8969253  92.5381505  76.0442721
  91.2106517  91.0574046  76.0152086  89.9274150  91.2801759  78.6285989
  90.4273929  91.3918294  77.8200308  90.5709758  90.9762812  79.2686798
  77.2542106 101.0208768  79.4375649  77.2312794 101.1196456  78.4857533
  77.5642742 101.8673919  79.7592816  90.2595462  94.0396792  75.4821017
  89.3721317  94.3246442  75.2641212  90.6749451  93.8790555  74.6348294
  90.2336486  99.5551328  75.6971307  90.1771687 100.0119879  74.8578940
  90.7864828  98.7942012  75.5194150  94.0441292  95.3441059  76.5221427
  93.7878226  94.9437695  77.3529634  93.4194160  96.0584853  76.3971566
  90.9671265 100.7456109  72.9923836  90.9120069 100.5800380  72.0512280
  90.3417320 101.4532142  73.1486026  84.2767391  90.2464218  72.5709155
  84.2646060  91.1906058  72.7277426  85.1690813  90.0634363  72.2768616
  88.0919510  86.8406994  76.8255092  87.3251906  86.2865481  76.9711774
  88.5030215  86.9128863  77.6869243  34.9047122  -0.2095737  68.4467980
  35.5425532  -0.3288989  67.7431321  34.7867965   0.7385107  68.5055933
  31.7136829  -0.2568309  68.3829505  31.3755340  -0.3727244  67.4950040
  32.5826597  -0.6577144  68.3630511  27.5723644   1.5967168  64.3726396
  27.0088510   1.5057105  63.6042684  27.4576039   0.7767072  64.8528889
  32.1956612   0.8966543  74.3415711  32.1845252   0.5019341  73.4696214
  32.3577251   0.1632616  74.9349482  25.1188076   3.0918359  67.2110617
  25.9109368   2.7509184  66.7956916  25.3584726   3.2013334  68.1312770
  33.1523203   5.2638135  59.6840861  32.5011183   5.8492216  59.2974875
  33.9467566   5.7944330  59.7435898  27.0778830   2.3527273  60.0827995
  27.8509706   1.8056260  59.9440871  27.4304229   3.2171522  60.2942457
  28.9163873   3.6803655  73.2894895  28.6253739   4.5849286  73.1741561
  29.5520857   3.7220182  74.0038964  29.8420080   1.0580503  69.8796254
  30.4383652   0.8336526  69.1653217  29.8995051   0.3165249  70.4821702
  29.4145108  -1.4880061  57.7146445  29.6670629  -2.0098540  56.9529908
  28.4769667  -1.6513916  57.8173129  34.4588391  -2.4844283  65.5221188
  35.2451480  -2.9024860  65.1711605  34.7227095  -1.5798191  65.6902837
  34.6298468   2.9528567  60.2209845  33.9944301   3.0263194  60.9330750
  34.2995875   3.5422166  59.5428925  39.8596818  -2.5469050  66.4254167
  40.5921990  -3.1169833  66.6591996  39.1036174  -2.9347449  66.8660673
  29.1341397   0.4148045  59.9170820  29.0177655  -0.2607052  60.5851905
  29.2443657  -0.0719581  59.1002973  31.4772938  -0.1241808  63.6217509
  31.1131145  -0.6511187  64.3330431  32.3340054  -0.5143339  63.4483995
  31.1178425  -5.0951909  58.6178858  31.2852827  -4.2271672  58.9849329
  30.9275594  -4.9324627  57.6940147  33.8753758   3.3665070  70.2844688
  33.5754481   4.2690109  70.1760496  33.5304817   3.0997254  71.1365841
  27.3266239  -0.1821133  66.3181393  26.4016736  -0.3144919  66.5259085
  27.5750653   0.5973086  66.8151335  37.2750902  -4.1152389  67.9642126
  36.3667779  -4.1836981  67.6700887  37.2238497  -3.6380445  68.7923951
  31.0967646  -2.6394251  59.6025525  30.9767271  -2.1937200  60.4411005
  30.4020234  -2.2908933  59.0439063  24.6875050  -0.5387859  67.1525182
  24.8167432  -0.2853380  68.0664594  24.0072502   0.0539849  66.8329837
  28.8574538  10.1309391  63.2515656  28.7798567  11.0817216  63.3304137
  28.2536181   9.7855263  63.9090582  31.3491767  -2.6962744  75.9077023
  30.5725102  -2.1368824  75.8979888  31.9882331  -2.2105961  76.4291893
  39.1412548  -5.9135951  69.7420000  38.4986928  -5.6203418  69.0959794
  38.6367477  -6.0283031  70.5473196  36.7952712  -2.1672778  60.4305859
  37.7070568  -1.9345391  60.2553556  36.2862359  -1.5835734  59.8680937
  29.6038140   0.1122709  75.4694990  30.3452824   0.6507753  75.1929814
  28.8975125   0.7388998  75.6266542  35.0793479   2.2551850  74.0667151
  35.4876835   1.8134260  73.3221784  34.3570741   1.6804477  74.3201344
  31.4324549  -2.8075543  71.4400708  32.2785745  -2.3836130  71.5835357
  31.3723187  -3.4641919  72.1339271  35.4022294   2.8153041  67.8219440
  34.7731157   2.9798755  67.1195508  35.0147956   3.2294650  68.5930404
  39.2811526   3.7507478  65.1763804  38.5962564   4.1306380  64.6260837
  39.3655375   4.3602805  65.9095752  34.5823995  -5.1471175  73.0981882
  34.3384927  -4.3929114  72.5616158  34.8583925  -4.7685827  73.9329129
  36.5362458   1.3967437  71.7759148  36.7479353   2.0399197  71.0993529
  36.4892206   0.5629754  71.3081078  34.1388687  -5.9914742  68.6795720
  33.2773166  -5.6933488  68.9712457  34.1651121  -5.7744343  67.7476752
  30.9550256   2.5527449  65.0869525  31.4188601   2.8315152  64.2974148
  30.6907054   1.6510893  64.9042616  27.8474337   2.0998930  68.0249289
  28.4175694   2.5286199  67.3866773  28.4382449   1.8181515  68.7233474
  29.8919142  -1.3249399  61.8959091  30.5943185  -0.8728355  62.3633017
  29.5599770  -1.9665580  62.5238984  37.6508286   4.2739393  69.9481505
  38.4725729   3.8719580  69.6664187  37.6470688   4.1707627  70.8997621
  31.4164889   3.8223436  72.1042215  31.4809321   4.2843843  72.9400387
  30.7075813   3.1920801  72.2324525  45.7414279   0.6178141  66.2966476
  44.9877987   0.0485539  66.1410481  45.8761820   0.5840806  67.2437111
  31.1312907   5.4891544  61.9721196  30.9958581   6.3343079  62.4006044
  31.6722719   5.6910821  61.2087130  24.5842304   3.0066982  62.5449121
  25.0966825   3.8010232  62.6954686  25.2365017   2.3093272  62.4782722
  26.3937189   6.1232738  64.6271874  26.5703817   7.0450703  64.4392858
  27.1894022   5.8091157  65.0566254  32.7581383   6.1115110  76.1021538
  32.3145237   5.3251489  75.7842442  33.4198597   6.2994261  75.4365429
  27.5168504   7.6410912  70.6282216  28.0675929   7.5127975  69.8559210
  26.6779980   7.9405801  70.2777109  34.8562621   6.3917910  74.1302939
  34.8381096   7.2126791  73.6383208  35.7782541   6.2671985  74.3553080
  31.3135675   3.9062040  74.9726447  31.8464012   3.1450328  74.7425755
  30.7849756   3.6135691  75.7150602  22.5491221   1.3355636  63.3208691
  23.3866443   1.7452644  63.1042399  22.7269488   0.3955078  63.2908885
  34.4455653  -0.9969283  59.0092524  33.9302276  -0.2264679  59.2480912
  34.1732961  -1.6704147  59.6325586  39.4189927   1.7563071  60.9445698
  38.6419370   1.4174231  60.5000860  40.0981408   1.7615694  60.2700663
  34.2341956  -3.1242191  60.8352305  33.9292092  -2.8096042  61.6862449
  35.1872398  -3.0460771  60.8779638  32.6788388   3.0348032  62.4845259
  32.1509750   2.3000792  62.1718497  32.1775891   3.8122708  62.2385228
  37.6581234   1.2297053  67.6012306  37.0004908   1.9196314  67.6892434
  38.4621633   1.6193484  67.9446292  36.4686693  -0.4158575  65.6516248
  36.9818574   0.2171417  66.1537957  37.1187917  -1.0157379  65.2859608
  30.8240988   0.8528242  55.4880233  29.9168050   0.6217496  55.6871381
  31.3212020   0.0565862  55.6754214  33.7309067   9.5625749  58.4076919
  33.0570766   9.8657446  59.0161877  34.1174889  10.3654830  58.0582376
  32.9467524  -2.9409119  67.8974588  32.0290085  -2.7194172  67.7396276
  33.3627667  -2.8662809  67.0386295  33.7302571  -1.5417704  63.0277268
  34.4774390  -1.0296306  62.7184390  33.9994161  -1.8633651  63.8881662
  32.0029222   0.9540837  60.0104223  31.0940441   0.6699870  60.1076692
  32.0324305   1.3739916  59.1507529  37.2348489   4.5647427  63.7795390
  36.7810816   3.7238337  63.8360581  36.6042456   5.2008825  64.1170170
  36.1781409  -4.5060587  65.0096058  35.4404165  -5.0183201  65.3406300
  36.4308182  -4.9460206  64.1979334  35.6781428   6.4023923  64.7145208
  35.9704403   6.9628980  63.9957574  36.1880049   6.6952484  65.4698367
  30.5514116  -1.4330542  66.1114018  30.6062725  -2.3856706  66.0356495
  29.7405318  -1.2771103  66.5955316  31.7005309   2.4949581  57.3492301
  31.2624739   1.7785440  56.8897939  32.4415750   2.7225696  56.7877393
  28.4906476  -2.8153483  63.8704397  27.6774341  -2.5159312  64.2769589
  28.9865470  -3.2097794  64.5878879  30.6415053   7.1804274  65.8038662
  30.5991232   7.4065121  64.8747194  31.5577752   6.9467649  65.9524463
  34.0880687  -2.3511658  72.7019291  34.4430075  -2.1240185  73.5613756
  34.7352818  -2.0193281  72.0796546  39.8178424   0.7706778  63.4068620
  39.6796323   0.9608374  62.4789809  39.4614643   1.5326161  63.8636671
  39.8447804   2.8383305  68.4179891  40.2784310   2.7458594  69.2662945
  40.5579384   2.8140805  67.7799907  28.7580854   4.0567303  65.6000624
  29.5521453   3.5617624  65.3983199  28.0472547   3.5285167  65.2368330
  33.5775699   6.4385399  69.9512992  33.6312721   7.0076335  70.7190708
  32.7090480   6.6087284  69.5867029  40.7063353   2.8807006  70.9512777
  40.8999243   3.7852816  71.1972052  40.6063971   2.4214425  71.7851362
  35.7678462   3.0313748  76.5253657  35.6163968   2.8024300  75.6083741
  35.7583141   3.9884350  76.5385002  32.5363798   0.6045661  71.5099924
  33.4655858   0.7556821  71.3368891  32.1154828   0.6929682  70.6548570
  31.3352130   4.6296325  69.2798461  31.1963216   4.2615110  70.1524399
  30.5466726   5.1443965  69.1082419  31.9300282   9.7305422  60.6223998
  32.1052038   9.2593465  61.4369621  31.2433070  10.3571188  60.8505259
  32.8857345   4.0077928  66.6687299  32.5507178   3.9678698  67.5644949
  32.3861291   3.3422644  66.1957709  26.8601589  -0.5854442  72.1939880
  26.7221387  -1.3174203  72.7951419  27.7706513  -0.6745542  71.9124068
  35.8216537   1.3533962  56.9424359  35.2045708   0.6280791  56.8457411
  35.3533025   2.1143323  56.5991433  29.4883890  -0.8734483  71.6823560
  30.1983508  -1.5141290  71.6410178  29.4453198  -0.6221588  72.6049741
  37.4770669   6.0632871  74.6030139  37.4183215   5.3792091  73.9360722
  37.8790187   6.8051861  74.1510765  26.4961367  12.8794785  67.3963858
  26.7357966  13.5113309  68.0742877  25.6530564  12.5282825  67.6829217
  37.4788076   4.0272455  72.8344119  36.5914855   3.6898377  72.9570518
  38.0486627   3.2955486  73.0712884  31.0089229   8.6873907  69.8005362
  30.9359401   9.4928879  70.3124667  30.5666622   8.8865873  68.9753383
  30.7979009   7.9245677  63.3108184  30.0146531   8.4667357  63.4046408
  31.4971754   8.4419657  63.7102425  34.1075659  -6.2659693  65.9542389
  34.6044359  -7.0189731  65.6343459  33.3362641  -6.2295377  65.3885598
  41.9605416  -0.5619328  67.5960680  41.9495293   0.3205388  67.2254614
  41.0922796  -0.9147777  67.4015218  33.4687913   8.5860741  71.9563521
  34.1815885   9.2208206  71.8839422  32.9777941   8.6824607  71.1403523
  35.1905440   2.4911994  63.5280812  34.2561718   2.6113456  63.3585517
  35.3682108   1.5884461  63.2640822  30.6910628  -4.1242310  65.6814074
  30.3208415  -4.6771270  66.3694979  31.1869720  -4.7284177  65.1289074
  38.5777991  -1.6670687  64.0630846  39.0438443  -0.8342695  63.9891149
  39.0285492  -2.1325705  64.7676105  28.5199826   6.3355185  72.7769091
  29.2209286   6.9691668  72.9298486  28.0494941   6.6769916  72.0164731
  36.6454222   4.6773134  61.0616999  36.9214066   4.5629729  61.9710873
  35.7758721   4.2790619  61.0229172  36.3201112  -1.1100208  70.6021642
  35.6672563  -0.8624300  69.9474095  36.6981492  -1.9236070  70.2684119
  33.2808286   8.9259485  64.7049812  33.4630681   8.1081141  65.1677564
  34.1041272   9.1427177  64.2674702  33.6150452   7.8527670  61.9664861
  34.1438218   7.3420125  61.3535023  33.8778671   7.5370201  62.8310394
  32.3688685  -0.3680397  77.0887679  31.6929322  -0.4686268  77.7590054
  33.1916319  -0.5241183  77.5523676  24.1167544   5.8691540  69.7100194
  24.7020981   5.1235228  69.8428098  23.9192383   6.1795496  70.5936858
  26.9706200   8.9042787  64.7262637  26.3016575   9.3888915  64.2426677
  26.8319069   9.1512007  65.6406015  31.1111468  10.9386531  71.3245295
  31.6629776  11.1018152  72.0894380  31.4517662  11.5290968  70.6525320
  35.9622343   5.7647788  77.1793949  36.5062247   6.3777746  76.6848904
  35.3809187   6.3227366  77.6960962  34.2479855   8.8868506  68.3108977
  34.1230995   8.0858246  67.8019923  34.9058947   9.3814699  67.8222947
  36.3114764   6.6877526  69.9388527  35.3645099   6.5682877  69.8666854
  36.6597537   5.8000024  70.0214789  33.3161197   6.4830242  66.1392879
  33.1686160   5.5546950  66.3200449  34.1414691   6.5050333  65.6549955
  36.9195319   7.3058801  67.2257752  37.8441866   7.1001662  67.0882203
  36.7510622   7.0575202  68.1347094  33.3122711  -5.6631920  61.1324997
  33.5286326  -4.7807282  60.8313825  32.8316779  -6.0545707  60.4030639
  28.0521933  -2.7046207  67.7095741  27.9066514  -2.3905904  68.6020023
  27.5747136  -2.0861306  67.1566640  31.7644446  -5.2806319  69.8029758
  31.5062224  -4.3589248  69.8014089  31.2329487  -5.6775884  70.4930222
  36.7090635   7.8244469  62.5819844  36.8827513   7.2590891  61.8293696
  37.2019526   8.6245363  62.3999334  42.5630026   0.5880892  64.2010143
  43.0061172  -0.1611783  63.8029267  41.6856537   0.5791028  63.8183875
  37.6965808   7.1411233  59.6816742  38.3916712   7.7617926  59.9004057
  38.0388958   6.2906584  59.9569120  39.5957231   4.5910939  61.2104073
  40.1208555   4.9298211  60.4853393  39.5079583   3.6557954  61.0267207
  31.2577280   8.5045012  73.3393949  31.5664406   8.2594159  74.2116649
  32.0552762   8.7091651  72.8512820  31.2797892  10.6582922  65.5699326
  30.8402882  10.1659300  66.2632183  32.0306009  10.1155889  65.3291401
  23.7590231   6.8494463  65.5723954  24.5848250   6.5498235  65.1922597
  23.4084283   6.0802085  66.0213743  28.7271764   6.2020931  67.6421628
  28.1051773   5.5391636  67.3423855  29.3976631   6.2282063  66.9595275
  21.9598836   4.7680789  66.5312888  21.1230744   4.3402963  66.3496889
  21.9322481   4.9613232  67.4683679  39.2851137   5.2243842  76.5155271
  38.4946681   5.2067981  75.9759770  39.0484491   5.7632136  77.2704307
  39.4049012   2.0736309  73.8287999  39.4547017   1.9086316  74.7703522
  39.2962935   1.2063568  73.4385880  28.2885271   4.7524854  61.1180088
  28.4373391   5.4360319  60.4646761  29.0951714   4.7329944  61.6329544
  36.6952774  -1.9432763  75.1447306  37.5962637  -2.0826299  74.8531304
  36.7700749  -1.7778309  76.0845483  31.0295580  -4.5665909  73.9900492
  30.1598889  -4.2732343  73.7183081  31.2655060  -3.9825464  74.7107756
  40.9067209   4.4933250  74.0730021  40.6152017   4.8563231  74.9093482
  40.2939340   3.7800258  73.8943353  42.1062891   2.0586130  66.5932591
  42.9409782   2.4975934  66.7570151  42.2422020   1.5824783  65.7740837
  39.1554397  -0.3834135  72.5410079  39.6308519  -0.1906489  71.7328930
  38.2319962  -0.3274950  72.2953462  26.0437904   0.7790032  62.1241157
  25.7983946  -0.1247638  62.3221367  26.2133818   0.7807182  61.1820635
  31.7880676   7.2472985  58.5891835  31.2154643   7.8663172  58.1362307
  32.3613470   7.7972346  59.1231757  37.8556066  -3.5068375  70.7738384
  38.8073489  -3.4070278  70.7950608  37.6859516  -4.2990107  71.2836469
  35.8770445  -6.4212792  70.9597785  35.2820378  -6.1407779  70.2644274
  35.5920142  -5.9318891  71.7314526  35.0077936   7.5310135  59.7200418
  35.9408609   7.4655696  59.9233293  34.9201149   8.3666402  59.2614950
  37.6365953   6.8476005  56.6804365  37.5579584   6.5135869  57.5740123
  38.4575619   7.3397773  56.6795838  40.3344144  -0.2862256  69.8880684
  40.3020464  -1.2246255  70.0740368  40.9444767  -0.2078219  69.1546509
  32.1727475  -1.4166203  55.9307888  33.1186579  -1.5459994  55.9996306
  31.7941720  -2.1551541  56.4077316  40.4838632  -3.4951212  69.9338967
  39.9677681  -4.2792755  69.7468896  41.3678581  -3.8232496  70.0985487
  46.1520694   0.7753751  69.0286721  46.8824082   0.5139039  69.5894424
  45.5427639   0.0382473  69.0688789  44.2335991  -1.0838386  69.6261172
  43.5069154  -1.2182421  69.0177664  43.8183278  -0.7761558  70.4317890
  32.0566167   2.6351544  77.3908545  32.9769177   2.8130143  77.5848591
  32.0215750   1.6907589  77.2388244  30.3570392  -3.4916226  55.8662773
  29.4501847  -3.7883113  55.9425487  30.6346373  -3.7886408  54.9997059
  25.0528240   0.5452578  70.0331326  25.2714250   1.4769686  70.0519360
  25.4654014   0.1860553  70.8186130  37.2801813  -7.7600765  63.1509975
  36.7000482  -7.1015960  62.7688028  37.0137746  -8.5823420  62.7397393
  35.7305379  -8.3595707  65.3531296  36.2305158  -8.2479172  64.5445615
  36.3740987  -8.6634654  65.9932104  23.0573335   1.3811302  66.1620956
  23.0344023   1.4798990  65.2102839  23.3673971   2.2276453  66.4838122
  25.7160713   3.4387458  70.2767570  26.6703966   3.4071400  70.2097502
  25.5173236   2.9778081  71.0917796  26.3060095   2.0088574  72.8438368
  27.1252984   2.5032652  72.8673205  26.5796902   1.0920542  72.8155936
  36.0626691  -5.6000674  62.2066324  35.1752546  -5.3151024  61.9886518
  36.4780680  -5.7606911  61.3593601  39.4141227  -5.5754153  65.9220663
  40.1901617  -5.0857701  66.1945280  38.6889361  -5.1496099  66.3792532
  41.8513786  -4.8626534  66.9794604  42.4458277  -5.1030798  66.2687912
  41.9240369  -5.5819403  67.6068140  24.0710941   8.9807077  67.2937768
  23.9365409   8.2207478  66.7275766  23.6543004   9.7047977  66.8266557
  35.2069904   4.1644001  56.3014344  35.9105755   4.3694003  56.9171999
  34.4832553   4.7320762  56.5663427  36.0367715  -0.0846138  62.4216614
  35.9802916   0.3722413  61.5824246  36.5896057  -0.8455454  62.2439457
  39.8472521  -4.2956406  63.2466733  39.5909455  -4.6959771  64.0774941
  39.2225389  -3.5812612  63.1216872  44.1584858  -1.5560333  65.7538025
  43.5984416  -1.4867144  66.5269587  43.5528362  -1.7319348  65.0337521
  27.2280067   9.8776394  67.5056211  27.1112451  10.8221827  67.4034901
  26.4072514   9.5749956  67.8942010  37.1156602   4.6026530  58.3512804
  37.9502206   4.1707728  58.1690278  36.9540945   4.4308543  59.2789698
  36.7702494   1.1058643  59.7169143  36.7151298   0.9402914  58.7757587
  36.1448549   1.8134676  59.8731333  34.0848401   3.4107555  79.0422706
  34.9539561   3.5848207  78.6809341  33.6055153   4.2301972  78.9198435
  28.2534581  10.5304656  70.7212139  29.1561828  10.5628266  71.0378634
  28.0271951   9.6005107  70.7358475  30.0088183   9.2835642  67.3822218
  29.0583814   9.2837504  67.2686590  30.3120670   8.5368377  66.8658253
  45.7440877  15.1196181  68.4467980  46.3819287  15.0002928  67.7431321
  45.6261720  16.0677025  68.5055933  42.5530583  15.0723609  68.3829505
  42.2149095  14.9564674  67.4950040  43.4220351  14.6714774  68.3630511
  38.4117399  16.9259085  64.3726396  37.8482264  16.8349022  63.6042684
  38.2969794  16.1058990  64.8528889  43.0350366  16.2258461  74.3415711
  43.0239007  15.8311259  73.4696214  43.1971006  15.4924533  74.9349482
  35.9581831  18.4210277  67.2110617  36.7503123  18.0801102  66.7956916
  36.1978481  18.5305252  68.1312770  43.9916958  20.5930053  59.6840861
  43.3404937  21.1784133  59.2974875  44.7861320  21.1236248  59.7435898
  37.9172585  17.6819190  60.0827995  38.6903461  17.1348177  59.9440871
  38.2697984  18.5463440  60.2942457  39.7557627  19.0095572  73.2894895
  39.4647493  19.9141203  73.1741561  40.3914612  19.0512100  74.0038964
  40.6813834  16.3872421  69.8796254  41.2777406  16.1628443  69.1653217
  40.7388806  15.6457166  70.4821702  40.2538863  13.8411856  57.7146445
  40.5064383  13.3193378  56.9529908  39.3163422  13.6778002  57.8173129
  45.2982145  12.8447635  65.5221188  46.0845235  12.4267058  65.1711605
  45.5620850  13.7493727  65.6902837  45.4692223  18.2820485  60.2209845
  44.8338056  18.3555112  60.9330750  45.1389629  18.8714084  59.5428925
  50.6990573  12.7822868  66.4254167  51.4315744  12.2122085  66.6591996
  49.9429928  12.3944468  66.8660673  39.9735151  15.7439962  59.9170820
  39.8571409  15.0684866  60.5851905  40.0837411  15.2572336  59.1002973
  42.3166692  15.2050109  63.6217509  41.9524899  14.6780730  64.3330431
  43.1733808  14.8148578  63.4483995  48.2215993   6.4944442  70.8848776
  47.8899318   7.3639853  70.6609991  47.6261606   6.1780726  71.5642806
  41.9572179  10.2340009  58.6178858  42.1246582  11.1020245  58.9849329
  41.7669348  10.3967291  57.6940147  44.7147512  18.6956988  70.2844688
  44.4148235  19.5982027  70.1760496  44.3698572  18.4289171  71.1365841
  38.1659994  15.1470785  66.3181393  37.2410490  15.0146999  66.5259085
  38.4144407  15.9265004  66.8151335  48.1144656  11.2139528  67.9642126
  47.2061534  11.1454937  67.6700887  48.0632252  11.6911473  68.7923951
  41.9361400  12.6897667  59.6025525  41.8161025  13.1354717  60.4411005
  41.2413988  13.0382984  59.0439063  35.5268805  14.7904058  67.1525182
  35.6561186  15.0438537  68.0664594  34.8466256  15.3831766  66.8329837
  39.6968292  25.4601308  63.2515656  39.6192322  26.4109133  63.3304137
  39.0929936  25.1147181  63.9090582  42.1885522  12.6329174  75.9077023
  41.4118856  13.1923094  75.8979888  42.8276085  13.1185957  76.4291893
  49.9806303   9.4155967  69.7420000  49.3380683   9.7088500  69.0959794
  49.4761231   9.3008887  70.5473196  47.6346466  13.1619140  60.4305859
  48.5464322  13.3946527  60.2553556  47.1256113  13.7456184  59.8680937
  40.4431894  15.4414627  75.4694990  41.1846579  15.9799671  75.1929814
  39.7368880  16.0680916  75.6266542  45.9187234  17.5843768  74.0667151
  46.3270590  17.1426178  73.3221784  45.1964495  17.0096395  74.3201344
  42.2718304  12.5216374  71.4400708  43.1179499  12.9455788  71.5835357
  42.2116942  11.8649999  72.1339271  46.2416049  18.1444958  67.8219440
  45.6124911  18.3090672  67.1195508  45.8541711  18.5586568  68.5930404
  50.1205280  19.0799396  65.1763804  49.4356319  19.4598297  64.6260837
  50.2049130  19.6894723  65.9095752  45.4217749  10.1820743  73.0981882
  45.1778681  10.9362803  72.5616158  45.6977680  10.5606090  73.9329129
  47.3756212  16.7259355  71.7759148  47.5873107  17.3691115  71.0993529
  47.3285960  15.8921672  71.3081078  44.9782441   9.3377176  68.6795720
  44.1166920   9.6358429  68.9712457  45.0044876   9.5547575  67.7476752
  41.7944010  17.8819366  65.0869525  42.2582356  18.1607069  64.2974148
  41.5300809  16.9802811  64.9042616  38.6868092  17.4290848  68.0249289
  39.2569449  17.8578116  67.3866773  39.2776203  17.1473433  68.7233474
  40.7312896  14.0042519  61.8959091  41.4336940  14.4563562  62.3633017
  40.3993525  13.3626338  62.5238984  39.1793258  12.5954275  76.2710300
  38.5491919  13.2770556  76.5045697  39.0729346  12.4837357  75.3263438
  34.4738230  12.2626071  67.1976224  33.6837284  12.5183600  66.7216335
  34.9649478  13.0774409  67.3028265  48.4902040  19.6031311  69.9481505
  49.3119484  19.2011498  69.6664187  48.4864443  19.4999545  70.8997621
  36.4252976  12.6270651  64.1559701  35.6284139  12.7389345  64.6743196
  36.1978568  12.9657303  63.2900591  42.2558643  19.1515354  72.1042215
  42.3203076  19.6135761  72.9400387  41.5469567  18.5212719  72.2324525
  32.7575933  12.5156562  69.6291215  33.0083972  13.4003572  69.8948791
  33.2935482  12.3361163  68.8566307  56.5808033  15.9470059  66.2966476
  55.8271741  15.3777457  66.1410481  56.7155574  15.9132723  67.2437111
  41.9706661  20.8183461  61.9721196  41.8352336  21.6634997  62.4006044
  42.5116474  21.0202739  61.2087130  38.4574001   6.8975041  78.6335551
  38.0640946   6.3441240  79.3083195  39.2740141   7.2085620  79.0242069
  35.4236059  18.3358899  62.5449121  35.9360579  19.1302150  62.6954686
  36.0758771  17.6385190  62.4782722  37.2330943  21.4524656  64.6271874
  37.4097572  22.3742620  64.4392858  38.0287777  21.1383075  65.0566254
  41.3741962   8.3132920  76.2255808  42.1151675   8.9140073  76.1460270
  41.6059885   7.5710558  75.6673850  36.5183300  13.4989288  74.5034037
  36.4036815  12.5974545  74.8041136  35.6627818  13.7452984  74.1518854
  43.5975137  21.4407028  76.1021538  43.1538992  20.6543406  75.7842442
  44.2592351  21.6286178  75.4365429  38.3562259  22.9702829  70.6282216
  38.9069684  22.8419893  69.8559210  37.5173735  23.2697718  70.2777109
  45.6956376  21.7209828  74.1302939  45.6774851  22.5418709  73.6383208
  46.6176296  21.5963903  74.3553080  42.1529430  19.2353957  74.9726447
  42.6857767  18.4742245  74.7425755  41.6243511  18.9427609  75.7150602
  45.3199125   4.3414023  70.5020089  44.9763394   5.2315665  70.4259200
  45.6878087   4.1515681  69.6389674  33.3884975  16.6647554  63.3208691
  34.2260197  17.0744562  63.1042399  33.5663243  15.7246996  63.2908885
  45.2849407  14.3322634  59.0092524  44.7696031  15.1027239  59.2480912
  45.0126716  13.6587770  59.6325586  42.8696518   9.1772335  64.0677763
  42.0138115   8.7879185  63.8883401  43.2823470   9.2564296  63.2077548
  44.3995665   6.7118678  68.4669322  43.8960461   6.6748814  67.6537128
  44.6926272   7.6211421  68.5265979  40.6438551   6.7957408  67.4735504
  41.5091548   6.6000217  67.1141394  40.7116060   6.5667760  68.4004861
  50.2583682  17.0854989  60.9445698  49.4813124  16.7466148  60.5000860
  50.9375163  17.0907612  60.2700663  45.0735711  12.2049726  60.8352305
  44.7685846  12.5195876  61.6862449  46.0266153  12.2831146  60.8779638
  43.5182142  18.3639950  62.4845259  42.9903504  17.6292709  62.1718497
  43.0169645  19.1414626  62.2385228  48.4974988  16.5588970  67.6012306
  47.8398663  17.2488232  67.6892434  49.3015388  16.9485402  67.9446292
  38.2500870   9.0259616  64.8451871  38.8244622   8.8034797  64.1125064
  38.8371852   9.0948310  65.5980472  47.3080447  14.9133343  65.6516248
  47.8212329  15.5463335  66.1537957  47.9581671  14.3134538  65.2859608
  38.5770457  11.0564077  58.8647756  37.7407769  11.3938764  59.1857031
  38.4375227  10.9213057  57.9274893  40.5523538   5.9000865  63.5726940
  39.8987950   5.5849882  62.9483555  40.5104012   5.2776605  64.2986763
  41.6634743  16.1820160  55.4880233  40.7561804  15.9509413  55.6871381
  42.1605775  15.3857779  55.6754214  44.5702821  24.8917667  58.4076919
  43.8964520  25.1949364  59.0161877  44.9568643  25.6946747  58.0582376
  43.7861278  12.3882798  67.8974588  42.8683839  12.6097745  67.7396276
  44.2021422  12.4629109  67.0386295  44.5696326  13.7874214  63.0277268
  45.3168145  14.2995611  62.7184390  44.8387915  13.4658267  63.8881662
  42.8422976  16.2832755  60.0104223  41.9334195  15.9991788  60.1076692
  42.8718060  16.7031833  59.1507529  48.0742243  19.8939344  63.7795390
  47.6204571  19.0530254  63.8360581  47.4436210  20.5300743  64.1170170
  47.0175163  10.8231330  65.0096058  46.2797920  10.3108717  65.3406300
  47.2701937  10.3831712  64.1979334  46.5175183  21.7315841  64.7145208
  46.8098157  22.2920898  63.9957574  47.0273803  22.0244402  65.4698367
  47.1186790   3.6007582  65.6037827  47.4245667   2.7404946  65.3163742
  47.8439395   4.1925203  65.4036821  33.4111146  14.0038269  63.9919425
  33.2135546  13.4107630  63.2670491  32.8557810  13.6990479  64.7095364
  41.3907870  13.8961375  66.1114018  41.4456480  12.9435212  66.0356495
  40.5799072  14.0520815  66.5955316  42.5399064  17.8241499  57.3492301
  42.1018494  17.1077357  56.8897939  43.2809505  18.0517613  56.7877393
  39.3300230  12.5138435  63.8704397  38.5168096  12.8132606  64.2769589
  39.8259224  12.1194124  64.5878879  41.4808808  22.5096192  65.8038662
  41.4384987  22.7357038  64.8747194  42.3971507  22.2759567  65.9524463
  44.9274442  12.9780260  72.7019291  45.2823829  13.2051733  73.5613756
  45.5746573  13.3098636  72.0796546  50.6572179  16.0998696  63.4068620
  50.5190077  16.2900292  62.4789809  50.3008397  16.8618078  63.8636671
  38.8214305  10.0856791  69.4865632  39.4613684   9.9445550  68.7888595
  37.9891835   9.7991304  69.1104234  50.6841558  18.1675223  68.4179891
  51.1178065  18.0750512  69.2662945  51.3973139  18.1432723  67.7799907
  39.5974609  19.3859221  65.6000624  40.3915207  18.8909541  65.3983199
  38.8866301  18.8577084  65.2368330  44.4169453  21.7677317  69.9512992
  44.4706475  22.3368253  70.7190708  43.5484235  21.9379202  69.5867029
  35.9057372  13.5302303  61.6760377  34.9754960  13.4686758  61.8930339
  36.0014844  13.0078256  60.8797018  35.8242921  10.0557116  64.2638619
  36.0849738  10.9702449  64.1547779  36.6460094   9.5881558  64.4135231
  37.2967847  11.4694873  71.4337443  37.9690900  11.2612235  70.7850092
  36.4697633  11.2716959  70.9942675  51.5457108  18.2098923  70.9512777
  51.7392998  19.1144734  71.1972052  51.4457726  17.7506342  71.7851362
  43.1993419   8.0956814  73.4503104  42.5521334   8.7946763  73.3567580
  43.9694434   8.5292958  73.8179352  46.6072216  18.3605666  76.5253657
  46.4557723  18.1316218  75.6083741  46.5976896  19.3176267  76.5385002
  43.3757553  15.9337579  71.5099924  44.3049613  16.0848738  71.3368891
  42.9548583  16.0221599  70.6548570  42.1745885  19.9588243  69.2798461
  42.0356970  19.5907028  70.1524399  41.3860481  20.4735883  69.1082419
  42.7694037  25.0597340  60.6223998  42.9445792  24.5885383  61.4369621
  42.0826825  25.6863106  60.8505259  43.7251100  19.3369846  66.6687299
  43.3900932  19.2970616  67.5644949  43.2255045  18.6714562  66.1957709
  37.6995344  14.7437476  72.1939880  37.5615142  14.0117715  72.7951419
  38.6100267  14.6546376  71.9124068  46.6610291  16.6825880  56.9424359
  46.0439462  15.9572708  56.8457411  46.1926780  17.4435240  56.5991433
  40.3277644  14.4557435  71.6823560  41.0377263  13.8150627  71.6410178
  40.2846953  14.7070330  72.6049741  48.3164423  21.3924788  74.6030139
  48.2576969  20.7084009  73.9360722  48.7183941  22.1343779  74.1510765
  39.0406578  11.4422653  73.5019199  38.5043935  10.9913392  74.1540796
  38.4523287  11.5768562  72.7589664  37.3355122  28.2086702  67.3963858
  37.5751720  28.8405227  68.0742877  36.4924318  27.8574742  67.6829217
  38.4508837  10.9011304  56.0645663  37.5738304  10.7800105  55.7007910
  38.9266590  10.1097383  55.8124552  48.3181830  19.3564372  72.8344119
  47.4308609  19.0190294  72.9570518  48.8880381  18.6247404  73.0712884
  29.9710977  15.6888464  66.1587170  30.6582017  15.3750194  65.5708186
  29.8159106  16.5929829  65.8854422  34.7745700  10.5778661  70.5872194
  34.6903888   9.9704330  69.8522604  33.9528406  11.0687679  70.5881690
  41.8482984  24.0165825  69.8005362  41.7753155  24.8220796  70.3124667
  41.4060377  24.2157791  68.9753383  41.6372763  23.2537595  63.3108184
  40.8540285  23.7959275  63.4046408  42.3365509  23.7711574  63.7102425
  44.9469414   9.0632224  65.9542389  45.4438113   8.3102187  65.6343459
  44.1756395   9.0996541  65.3885598  52.7999171  14.7672590  67.5960680
  52.7889047  15.6497305  67.2254614  51.9316550  14.4144141  67.4015218
  44.3081667  23.9152659  71.9563521  45.0209640  24.5500124  71.8839422
  43.8171696  24.0116525  71.1403523  46.0299194  17.8203911  63.5280812
  45.0955473  17.9405374  63.3585517  46.2075863  16.9176378  63.2640822
  41.5304382  11.2049607  65.6814074  41.1602170  10.6520648  66.3694979
  42.0263475  10.6007741  65.1289074  49.4171746  13.6621231  64.0630846
  49.8832198  14.4949222  63.9891149  49.8679246  13.1966212  64.7676105
  39.3593581  21.6647102  72.7769091  40.0603040  22.2983585  72.9298486
  38.8888696  22.0061834  72.0164731  47.4847977  20.0065052  61.0616999
  47.7607821  19.8921647  61.9710873  46.6152475  19.6082537  61.0229172
  47.3888408   6.0301818  68.1021748  46.4751488   6.2606045  68.2703955
  47.8181510   6.1140262  68.9535780  47.1594867  14.2191710  70.6021642
  46.5066317  14.4667617  69.9474095  47.5375247  13.4055848  70.2684119
  44.1202041  24.2551403  64.7049812  44.3024435  23.4373059  65.1677564
  44.9435027  24.4719095  64.2674702  44.4544206  23.1819588  61.9664861
  44.9831973  22.6712043  61.3535023  44.7172426  22.8662118  62.8310394
  43.2082440  14.9611521  77.0887679  42.5323077  14.8605650  77.7590054
  44.0310074  14.8050735  77.5523676  34.9561299  21.1983457  69.7100194
  35.5414736  20.4527145  69.8428098  34.7586137  21.5087414  70.5936858
  37.8099954  24.2334705  64.7262637  37.1410329  24.7180832  64.2426677
  37.6712824  24.4803925  65.6406015  29.5478954  13.7689058  68.4304637
  29.5863053  13.2352648  69.2241755  29.0419246  13.2424263  67.8115615
  41.9505223  26.2678448  71.3245295  42.5023531  26.4310070  72.0894380
  42.2911416  26.8582886  70.6525320  36.9269716   8.6153598  71.9267180
  36.9911042   9.4768429  71.5144577  36.8636836   8.0027600  71.1939538
  36.4021988  10.6876731  75.5740214  37.0294027  10.3053808  76.1877738
  35.5449907  10.4690933  75.9395906  46.8016097  21.0939706  77.1793949
  47.3456001  21.7069664  76.6848904  46.2202942  21.6519284  77.6960962
  33.1787531  12.4953160  61.5058569  33.4740972  11.5863838  61.4525622
  32.2775567  12.4740899  61.1839571  45.0873610  24.2160424  68.3108977
  44.9624749  23.4150164  67.8019923  45.7452701  24.7106617  67.8222947
  36.7081778  10.5709156  67.4886117  35.9868364  11.1845124  67.3493591
  37.4975034  11.1066921  67.4102763  47.1508518  22.0169444  69.9388527
  46.2038854  21.8974795  69.8666854  47.4991291  21.1291942  70.0214789
  39.5108092   7.9063583  73.7626769  40.0342494   8.1525879  74.5253078
  39.2920425   8.7383618  73.3429906  34.9075373  10.1767257  61.6297894
  34.5788079   9.2964636  61.4473000  35.2614743  10.1214926  62.5174283
  44.1554952  21.8122160  66.1392879  44.0079914  20.8838867  66.3200449
  44.9808445  21.8342251  65.6549955  38.0217196  10.4640227  61.9973372
  38.3613268  10.9926148  61.2751980  38.4689316  10.8020633  62.7731938
  47.7589073  22.6350719  67.2257752  48.6835621  22.4293580  67.0882203
  47.5904377  22.3867120  68.1347094  40.7160637   8.8477278  71.4476440
  40.3757457   8.0485091  71.8497119  40.0099643   9.1478989  70.8753273
  41.3677109   5.9326590  69.9003763  42.1903178   5.4587068  69.7782653
  41.6115172   6.7117074  70.4002449  40.0085343   8.9614849  60.1966664
  40.7293706   9.3396102  59.6930381  39.3850647   9.6803726  60.3001642
  44.1516466   9.6659998  61.1324997  44.3680080  10.5484636  60.8313825
  43.6710533   9.2746211  60.4030639  38.8915687  12.6245711  67.7095741
  38.7460268  12.9386014  68.6020023  38.4140891  13.2430611  67.1566640
  40.7512070   9.6148259  67.7576631  40.7373639   8.7189352  67.4208929
  41.4684498   9.6218923  68.3914917  42.6038201  10.0485599  69.8029758
  42.3455979  10.9702670  69.8014089  42.0723241   9.6516034  70.4930222
  47.5484390  23.1536386  62.5819844  47.7221267  22.5882809  61.8293696
  48.0413281  23.9537281  62.3999334  33.3661350  15.1651055  70.6483402
  32.8214818  15.9410863  70.7803677  34.2440699  15.5121860  70.4902524
  40.1548966   8.4962639  63.0264201  40.2764877   7.5679285  63.2255088
  39.8651009   8.5101325  62.1142516  43.0240157   6.1817550  66.1630921
  43.0461853   6.2456883  65.2082900  43.4408216   5.3422058  66.3571427
  53.4023781  15.9172809  64.2010143  53.8454927  15.1680134  63.8029267
  52.5250291  15.9082946  63.8183875  48.5359562  22.4703151  59.6816742
  49.2310467  23.0909843  59.9004057  48.8782712  21.6198502  59.9569120
  34.1527371  14.2920952  73.5413559  33.4109107  14.4403587  74.1278190
  33.8320116  14.5529217  72.6780309  50.4350985  19.9202856  61.2104073
  50.9602309  20.2590129  60.4853393  50.3473338  18.9849872  61.0267207
  42.0971034  23.8336930  73.3393949  42.4058160  23.5886077  74.2116649
  42.8946516  24.0383568  72.8512820  42.1191646  25.9874839  65.5699326
  41.6796636  25.4951218  66.2632183  42.8699763  25.4447807  65.3291401
  34.5983985  22.1786380  65.5723954  35.4242005  21.8790152  65.1922597
  34.2478037  21.4094003  66.0213743  39.5665518  21.5312849  67.6421628
  38.9445528  20.8683554  67.3423855  40.2370385  21.5573980  66.9595275
  32.7992590  20.0972707  66.5312888  31.9624498  19.6694881  66.3496889
  32.7716236  20.2905150  67.4683679  39.6390046  10.0094637  77.2354134
  39.6878201  10.8856759  76.8531903  40.1812560   9.4672030  76.6625777
  50.1244891  20.5535760  76.5155271  49.3340435  20.5359899  75.9759770
  49.8878246  21.0924054  77.2704307  50.2442766  17.4028226  73.8287999
  50.2940771  17.2378234  74.7703522  50.1356690  16.5355485  73.4385880
  39.1279025  20.0816772  61.1180088  39.2767145  20.7652236  60.4646761
  39.9345469  20.0621862  61.6329544  47.5346529  13.3859154  75.1447306
  48.4356392  13.2465619  74.8531304  47.6094503  13.5513609  76.0845483
  41.8689334  10.7626009  73.9900492  40.9992644  11.0559575  73.7183081
  42.1048815  11.3466454  74.7107756  51.7460963  19.8225168  74.0730021
  51.4545772  20.1855148  74.9093482  51.1333095  19.1092176  73.8943353
  52.9456646  17.3878047  66.5932591  53.7803537  17.8267852  66.7570151
  53.0815774  16.9116701  65.7740837  49.9948152  14.9457782  72.5410079
  50.4702273  15.1385429  71.7328930  49.0713717  15.0016968  72.2953462
  36.8831658  16.1081950  62.1241157  36.6377700  15.2044280  62.3221367
  37.0527573  16.1099100  61.1820635  44.5728368   6.9805626  71.5065913
  45.0910312   7.7166653  71.1812401  44.2183501   7.2869619  72.3412672
  36.1527306  11.8410307  59.6227318  35.4596551  11.9154662  58.9667354
  35.9079058  11.0770651  60.1448835  44.8240962   3.4005908  67.0266809
  45.1042716   2.7329098  67.6527236  45.6091569   3.5935004  66.5141473
  42.6274431  22.5764902  58.5891835  42.0548398  23.1955089  58.1362307
  43.2007224  23.1264264  59.1231757  48.6949821  11.8223542  70.7738384
  49.6467243  11.9221640  70.7950608  48.5253271  11.0301811  71.2836469
  46.7164200   8.9079126  70.9597785  46.1214132   9.1884138  70.2644274
  46.4313897   9.3973027  71.7314526  45.8471690  22.8602052  59.7200418
  46.7802364  22.7947614  59.9233293  45.7594903  23.6958319  59.2614950
  48.4759707  22.1767923  56.6804365  48.3973339  21.8427786  57.5740123
  49.2969374  22.6689691  56.6795838  51.1737898  15.0429662  69.8880684
  51.1414218  14.1045663  70.0740368  51.7838522  15.1213699  69.1546509
  43.0121229  13.9125715  55.9307888  43.9580334  13.7831923  55.9996306
  42.6335474  13.1740377  56.4077316  51.3232387  11.8340706  69.9338967
  50.8071435  11.0499162  69.7468896  52.2072335  11.5059422  70.0985487
  48.9843114   5.5781721  65.8934780  48.7867935   5.2696809  66.7778112
  49.5942819   6.3043360  66.0232710  56.9914448  16.1045669  69.0286721
  57.7217837  15.8430957  69.5894424  56.3821394  15.3674391  69.0688789
  55.0729745  14.2453532  69.6261172  54.3462909  14.1109496  69.0177664
  54.6577032  14.5530360  70.4317890  42.8959922  17.9643461  77.3908545
  43.8162931  18.1422060  77.5848591  42.8609505  17.0199507  77.2388244
  41.1964146  11.8375691  55.8662773  40.2895602  11.5408804  55.9425487
  41.4740127  11.5405510  54.9997059  32.1142087  13.1582055  66.3161820
  31.7944871  12.3047363  66.0236194  31.5675515  13.3730633  67.0719787
  35.8921994  15.8744496  70.0331326  36.1108004  16.8061604  70.0519360
  36.3047768  15.5152470  70.8186130  42.8126212   6.3812581  62.0207014
  42.0026940   6.0359666  62.3962261  43.5010629   6.0720125  62.6094626
  44.7416760   5.4590628  63.6431311  45.2947799   5.8786081  64.3021334
  44.9786847   4.5326376  63.6854267  40.7649860  11.4477702  79.4234075
  40.6646586  12.3972059  79.3546166  40.5471402  11.1195941  78.5510145
  39.9662931   8.6962627  56.0074752  40.8282095   9.0217525  56.2670570
  40.1513275   7.9094123  55.4947818  31.9830347  16.7784966  68.2854941
  31.2893818  16.3638919  67.7724896  32.7303338  16.8205503  67.6888360
  48.1195567   7.5691153  63.1509975  47.5394236   8.2275957  62.7688028
  47.8531500   6.7468498  62.7397393  46.5699134   6.9696211  65.3531296
  47.0698912   7.0812745  64.5445615  47.2134742   6.6657264  65.9932104
  40.6281130  14.8774840  78.2399137  40.1448211  15.6775201  78.4463026
  40.7142069  14.8882785  77.2866581  33.8967089  16.7103220  66.1620956
  33.8737777  16.8090907  65.2102839  34.2067726  17.5568371  66.4838122
  36.5554467  18.7679375  70.2767570  37.5097721  18.7363318  70.2097502
  36.3566991  18.3069999  71.0917796  37.1453849  17.3380491  72.8438368
  37.9646738  17.8324570  72.8673205  37.4190657  16.4212459  72.8155936
  46.9020445   9.7291244  62.2066324  46.0146300  10.0140894  61.9886518
  47.3174435   9.5685007  61.3593601  50.2534982   9.7537765  65.9220663
  51.0295372  10.2434217  66.1945280  49.5283116  10.1795819  66.3792532
  52.6907540  10.4665384  66.9794604  53.2852031  10.2261120  66.2687912
  52.7634124   9.7472514  67.6068140  34.9104696  24.3098995  67.2937768
  34.7759164  23.5499396  66.7275766  34.4936758  25.0339895  66.8266557
  46.0463659  19.4935918  56.3014344  46.7499509  19.6985921  56.9171999
  45.3226308  20.0612680  56.5663427  46.8761469  15.2445779  62.4216614
  46.8196671  15.7014331  61.5824246  47.4289812  14.4836464  62.2439457
  50.6866275  11.0335511  63.2466733  50.4303209  10.6332147  64.0774941
  50.0619143  11.7479305  63.1216872  54.9978613  13.7731585  65.7538025
  54.4378171  13.8424774  66.5269587  54.3922116  13.5972569  65.0337521
  38.0673822  25.2068312  67.5056211  37.9506206  26.1513744  67.4034901
  37.2466268  24.9041873  67.8942010  47.9550356  19.9318447  58.3512804
  48.7895960  19.4999646  58.1690278  47.7934699  19.7600461  59.2789698
  47.6096248  16.4350561  59.7169143  47.5545052  16.2694832  58.7757587
  46.9842304  17.1426594  59.8731333  32.3988763  11.6718625  73.5430565
  33.0447627  11.1617579  74.0317790  32.1905915  12.4087307  74.1173990
  44.9242156  18.7399473  79.0422706  45.7933315  18.9140125  78.6809341
  44.4448907  19.5593889  78.9198435  40.9192374   5.9358670  59.2954461
  40.9071044   6.8800510  59.4522732  41.8115796   5.7528815  59.0013923
  39.0928336  25.8596574  70.7212139  39.9955583  25.8920184  71.0378634
  38.8665706  24.9297025  70.7358475  40.8481938  24.6127560  67.3822218
  39.8977569  24.6129422  67.2686590  41.1514424  23.8660295  66.8658253
  44.7344493   2.5301446  63.5500398  43.9676889   1.9759933  63.6957081
  45.1455198   2.6023315  64.4114550  36.7386254   8.8186242  77.6405579
  37.6017716   8.4623047  77.8508904  36.1651665   8.4800137  78.3280984
  56.5834631  30.4488099  68.4467980  57.2213041  30.3294846  67.7431321
  56.4655474  31.3968942  68.5055933  53.8744121  31.5550378  74.3415711
  53.8632761  31.1603177  73.4696214  54.0364760  30.8216451  74.9349482
  46.7975585  33.7502195  67.2110617  47.5896877  33.4093019  66.7956916
  47.0372235  33.8597170  68.1312770  50.5951382  34.3387490  73.2894895
  50.3041248  35.2433121  73.1741561  51.2308366  34.3804018  74.0038964
  61.5384327  28.1114786  66.4254167  62.2709499  27.5414002  66.6591996
  60.7823683  27.7236386  66.8660673  59.0609747  21.8236360  70.8848776
  58.7293072  22.6931771  70.6609991  58.4655361  21.5072644  71.5642806
  52.7965934  25.5631927  58.6178858  52.9640336  26.4312163  58.9849329
  52.6063103  25.7259208  57.6940147  58.9538411  26.5431446  67.9642126
  58.0455288  26.4746854  67.6700887  58.9026006  27.0203391  68.7923951
  52.7755155  28.0189584  59.6025525  52.6554780  28.4646635  60.4411005
  52.0807743  28.3674902  59.0439063  46.3662559  30.1195976  67.1525182
  46.4954941  30.3730455  68.0664594  45.6860011  30.7123684  66.8329837
  53.0279276  27.9621091  75.9077023  52.2512611  28.5215012  75.8979888
  53.6669840  28.4477874  76.4291893  60.8200057  24.7447884  69.7420000
  60.1774437  25.0380417  69.0959794  60.3154986  24.6300805  70.5473196
  58.4740221  28.4911057  60.4305859  59.3858077  28.7238444  60.2553556
  57.9649868  29.0748102  59.8680937  51.2825649  30.7706545  75.4694990
  52.0240333  31.3091589  75.1929814  50.5762634  31.3972834  75.6266542
  56.7580988  32.9135685  74.0667151  57.1664344  32.4718096  73.3221784
  56.0358250  32.3388313  74.3201344  53.1112058  27.8508292  71.4400708
  53.9573254  28.2747706  71.5835357  53.0510696  27.1941916  72.1339271
  60.9599035  34.4091314  65.1763804  60.2750073  34.7890215  64.6260837
  61.0442884  35.0186640  65.9095752  56.2611504  25.5112660  73.0981882
  56.0172436  26.2654721  72.5616158  56.5371434  25.8898008  73.9329129
  58.2149967  32.0551273  71.7759148  58.4266862  32.6983033  71.0993529
  58.1679715  31.2213589  71.3081078  55.8176196  24.6669093  68.6795720
  54.9560675  24.9650347  68.9712457  55.8438630  24.8839492  67.7476752
  50.0187013  27.9246193  76.2710300  49.3885673  28.6062474  76.5045697
  49.9123100  27.8129275  75.3263438  45.3131985  27.5917989  67.1976224
  44.5231039  27.8475518  66.7216335  45.8043232  28.4066327  67.3028265
  59.3295795  34.9323228  69.9481505  60.1513238  34.5303415  69.6664187
  59.3258197  34.8291462  70.8997621  43.5969688  27.8448479  69.6291215
  43.8477726  28.7295489  69.8948791  44.1329236  27.6653081  68.8566307
  67.4201788  31.2761977  66.2966476  66.6665496  30.7069375  66.1410481
  67.5549329  31.2424641  67.2437111  49.2967755  22.2266959  78.6335551
  48.9034701  21.6733157  79.3083195  50.1133896  22.5377537  79.0242069
  52.2135716  23.6424838  76.2255808  52.9545430  24.2431991  76.1460270
  52.4453639  22.9002476  75.6673850  47.3577054  28.8281205  74.5034037
  47.2430569  27.9266462  74.8041136  46.5021572  29.0744902  74.1518854
  52.9923184  34.5645875  74.9726447  53.5251521  33.8034163  74.7425755
  52.4637265  34.2719527  75.7150602  56.1592879  19.6705941  70.5020089
  55.8157149  20.5607583  70.4259200  56.5271842  19.4807598  69.6389674
  53.7090273  24.5064253  64.0677763  52.8531869  24.1171103  63.8883401
  54.1217225  24.5856214  63.2077548  55.2389420  22.0410596  68.4669322
  54.7354215  22.0040731  67.6537128  55.5320026  22.9503339  68.5265979
  51.4832305  22.1249326  67.4735504  52.3485302  21.9292134  67.1141394
  51.5509814  21.8959678  68.4004861  61.0977436  32.4146907  60.9445698
  60.3206879  32.0758066  60.5000860  61.7768917  32.4199530  60.2700663
  59.3368743  31.8880888  67.6012306  58.6792417  32.5780149  67.6892434
  60.1409142  32.2777320  67.9446292  49.0894625  24.3551534  64.8451871
  49.6638376  24.1326715  64.1125064  49.6765607  24.4240228  65.5980472
  58.1474202  30.2425261  65.6516248  58.6606083  30.8755252  66.1537957
  58.7975426  29.6426456  65.2859608  49.4164212  26.3855995  58.8647756
  48.5801524  26.7230681  59.1857031  49.2768981  26.2504974  57.9274893
  51.3917292  21.2292783  63.5726940  50.7381705  20.9141800  62.9483555
  51.3497766  20.6068523  64.2986763  54.6255033  27.7174716  67.8974588
  53.7077594  27.9389663  67.7396276  55.0415176  27.7921027  67.0386295
  58.9135998  35.2231262  63.7795390  58.4598325  34.3822172  63.8360581
  58.2829965  35.8592660  64.1170170  57.8568918  26.1523248  65.0096058
  57.1191674  25.6400634  65.3406300  58.1095691  25.7123630  64.1979334
  57.9580545  18.9299500  65.6037827  58.2639422  18.0696863  65.3163742
  58.6833150  19.5217120  65.4036821  44.2504901  29.3330187  63.9919425
  44.0529301  28.7399547  63.2670491  43.6951565  29.0282397  64.7095364
  55.7668196  28.3072177  72.7019291  56.1217584  28.5343650  73.5613756
  56.4140327  28.6390554  72.0796546  61.4965933  31.4290613  63.4068620
  61.3583832  31.6192209  62.4789809  61.1402152  32.1909996  63.8636671
  49.6608059  25.4148708  69.4865632  50.3007439  25.2737467  68.7888595
  48.8285590  25.1283222  69.1104234  61.5235313  33.4967140  68.4179891
  61.9571819  33.4042429  69.2662945  62.2366893  33.4724641  67.7799907
  46.6636676  25.3849033  64.2638619  46.9243493  26.2994367  64.1547779
  47.4853848  24.9173476  64.4135231  48.1361601  26.7986791  71.4337443
  48.8084654  26.5904153  70.7850092  47.3091388  26.6008877  70.9942675
  62.3850862  33.5390841  70.9512777  62.5786752  34.4436651  71.1972052
  62.2851480  33.0798260  71.7851362  54.0387173  23.4248731  73.4503104
  53.3915088  24.1238681  73.3567580  54.8088188  23.8584875  73.8179352
  57.4465971  33.6897584  76.5253657  57.2951477  33.4608135  75.6083741
  57.4370650  34.6468185  76.5385002  54.2151307  31.2629496  71.5099924
  55.1443367  31.4140656  71.3368891  53.7942337  31.3513517  70.6548570
  48.5389098  30.0729394  72.1939880  48.4008896  29.3409632  72.7951419
  49.4494022  29.9838294  71.9124068  51.1671399  29.7849353  71.6823560
  51.8771017  29.1442545  71.6410178  51.1240707  30.0362248  72.6049741
  59.1558178  36.7216706  74.6030139  59.0970724  36.0375926  73.9360722
  59.5577696  37.4635696  74.1510765  49.8800333  26.7714571  73.5019199
  49.3437690  26.3205309  74.1540796  49.2917041  26.9060480  72.7589664
  49.2902592  26.2303222  56.0645663  48.4132058  26.1092023  55.7007910
  49.7660345  25.4389300  55.8124552  59.1575585  34.6856290  72.8344119
  58.2702364  34.3482212  72.9570518  59.7274136  33.9539321  73.0712884
  40.8104732  31.0180382  66.1587170  41.4975772  30.7042112  65.5708186
  40.6552861  31.9221746  65.8854422  45.6139454  25.9070578  70.5872194
  45.5297643  25.2996248  69.8522604  44.7922161  26.3979597  70.5881690
  55.7863168  24.3924142  65.9542389  56.2831868  23.6394104  65.6343459
  55.0150150  24.4288459  65.3885598  63.6392925  30.0964507  67.5960680
  63.6282802  30.9789223  67.2254614  62.7710305  29.7436058  67.4015218
  52.3698137  26.5341525  65.6814074  51.9995924  25.9812565  66.3694979
  52.8657229  25.9299658  65.1289074  60.2565500  28.9913148  64.0630846
  60.7225952  29.8241140  63.9891149  60.7073001  28.5258130  64.7676105
  58.2282163  21.3593735  68.1021748  57.3145243  21.5897962  68.2703955
  58.6575264  21.4432180  68.9535780  57.9988621  29.5483627  70.6021642
  57.3460072  29.7959535  69.9474095  58.3769001  28.7347766  70.2684119
  54.0476194  30.2903438  77.0887679  53.3716831  30.1897568  77.7590054
  54.8703828  30.1342652  77.5523676  40.3872708  29.0980975  68.4304637
  40.4256808  28.5644566  69.2241755  39.8813001  28.5716181  67.8115615
  47.7663470  23.9445516  71.9267180  47.8304797  24.8060347  71.5144577
  47.7030591  23.3319517  71.1939538  47.2415743  26.0168648  75.5740214
  47.8687782  25.6345726  76.1877738  46.3843662  25.7982850  75.9395906
  44.0181286  27.8245077  61.5058569  44.3134727  26.9155756  61.4525622
  43.1169321  27.8032817  61.1839571  47.5475533  25.9001074  67.4886117
  46.8262118  26.5137042  67.3493591  48.3368788  26.4358839  67.4102763
  57.9902273  37.3461362  69.9388527  57.0432608  37.2266713  69.8666854
  58.3385046  36.4583860  70.0214789  50.3501846  23.2355500  73.7626769
  50.8736248  23.4817797  74.5253078  50.1314179  24.0675535  73.3429906
  45.7469127  25.5059175  61.6297894  45.4181833  24.6256554  61.4473000
  46.1008498  25.4506844  62.5174283  48.8610950  25.7932145  61.9973372
  49.2007023  26.3218066  61.2751980  49.3083071  26.1312551  62.7731938
  58.5982828  37.9642636  67.2257752  59.5229375  37.7585498  67.0882203
  58.4298131  37.7159038  68.1347094  51.5554391  24.1769196  71.4476440
  51.2151212  23.3777009  71.8497119  50.8493398  24.4770906  70.8753273
  52.2070863  21.2618508  69.9003763  53.0296932  20.7878986  69.7782653
  52.4508927  22.0408992  70.4002449  50.8479098  24.2906766  60.1966664
  51.5687460  24.6688019  59.6930381  50.2244402  25.0095643  60.3001642
  54.9910220  24.9951915  61.1324997  55.2073835  25.8776553  60.8313825
  54.5104288  24.6038129  60.4030639  49.7309442  27.9537629  67.7095741
  49.5854023  28.2677932  68.6020023  49.2534645  28.5722529  67.1566640
  51.5905825  24.9440177  67.7576631  51.5767393  24.0481270  67.4208929
  52.3078253  24.9510840  68.3914917  53.4431955  25.3777517  69.8029758
  53.1849733  26.2994587  69.8014089  52.9116996  24.9807951  70.4930222
  44.2055104  30.4942973  70.6483402  43.6608572  31.2702781  70.7803677
  45.0834454  30.8413777  70.4902524  50.9942721  23.8254557  63.0264201
  51.1158632  22.8971203  63.2255088  50.7044763  23.8393243  62.1142516
  53.8633911  21.5109467  66.1630921  53.8855608  21.5748800  65.2082900
  54.2801970  20.6713976  66.3571427  64.2417535  31.2464727  64.2010143
  64.6848681  30.4972052  63.8029267  63.3644046  31.2374863  63.8183875
  44.9921126  29.6212869  73.5413559  44.2502862  29.7695505  74.1278190
  44.6713870  29.8821135  72.6780309  50.4783800  25.3386554  77.2354134
  50.5271956  26.2148677  76.8531903  51.0206314  24.7963947  76.6625777
  60.9638646  35.8827678  76.5155271  60.1734190  35.8651816  75.9759770
  60.7272000  36.4215971  77.2704307  61.0836521  32.7320144  73.8287999
  61.1334526  32.5670151  74.7703522  60.9750444  31.8647403  73.4385880
  58.3740283  28.7151072  75.1447306  59.2750146  28.5757537  74.8531304
  58.4488258  28.8805527  76.0845483  52.7083089  26.0917927  73.9900492
  51.8386398  26.3851493  73.7183081  52.9442569  26.6758372  74.7107756
  62.5854718  35.1517085  74.0730021  62.2939526  35.5147066  74.9093482
  61.9726849  34.4384094  73.8943353  63.7850400  32.7169965  66.5932591
  64.6197291  33.1559769  66.7570151  63.9209529  32.2408618  65.7740837
  60.8341906  30.2749700  72.5410079  61.3096028  30.4677346  71.7328930
  59.9107471  30.3308886  72.2953462  55.4122122  22.3097544  71.5065913
  55.9304066  23.0458571  71.1812401  55.0577255  22.6161537  72.3412672
  46.9921060  27.1702225  59.6227318  46.2990305  27.2446580  58.9667354
  46.7472812  26.4062568  60.1448835  55.6634717  18.7297826  67.0266809
  55.9436470  18.0621015  67.6527236  56.4485324  18.9226922  66.5141473
  59.5343575  27.1515460  70.7738384  60.4860998  27.2513558  70.7950608
  59.3647025  26.3593729  71.2836469  57.5557954  24.2371043  70.9597785
  56.9607887  24.5176056  70.2644274  57.2707651  24.7264944  71.7314526
  62.0131653  30.3721580  69.8880684  61.9807973  29.4337581  70.0740368
  62.6232276  30.4505617  69.1546509  62.1626141  27.1632623  69.9338967
  61.6465190  26.3791080  69.7468896  63.0466090  26.8351340  70.0985487
  59.8236868  20.9073639  65.8934780  59.6261689  20.5988727  66.7778112
  60.4336574  21.6335278  66.0232710  67.8308203  31.4337587  69.0286721
  68.5611591  31.1722875  69.5894424  67.2215148  30.6966309  69.0688789
  65.9123500  29.5745449  69.6261172  65.1856663  29.4401414  69.0177664
  65.4970787  29.8822278  70.4317890  53.7353676  33.2935379  77.3908545
  54.6556686  33.4713978  77.5848591  53.7003259  32.3491424  77.2388244
  52.0357901  27.1667609  55.8662773  51.1289356  26.8700722  55.9425487
  52.3133882  26.8697427  54.9997059  42.9535841  28.4873973  66.3161820
  42.6338626  27.6339281  66.0236194  42.4069269  28.7022551  67.0719787
  46.7315749  31.2036414  70.0331326  46.9501759  32.1353521  70.0519360
  47.1441523  30.8444388  70.8186130  53.6519967  21.7104499  62.0207014
  52.8420695  21.3651584  62.3962261  54.3404383  21.4012043  62.6094626
  55.5810515  20.7882546  63.6431311  56.1341553  21.2077999  64.3021334
  55.8180601  19.8618294  63.6854267  51.6043614  26.7769619  79.4234075
  51.5040341  27.7263976  79.3546166  51.3865156  26.4487858  78.5510145
  50.8056685  24.0254544  56.0074752  51.6675849  24.3509443  56.2670570
  50.9907030  23.2386040  55.4947818  42.8224101  32.1076884  68.2854941
  42.1287573  31.6930837  67.7724896  43.5697092  32.1497421  67.6888360
  58.9589322  22.8983071  63.1509975  58.3787991  23.5567875  62.7688028
  58.6925255  22.0760415  62.7397393  57.4092888  22.2988129  65.3531296
  57.9092667  22.4104663  64.5445615  58.0528496  21.9949181  65.9932104
  51.4674884  30.2066758  78.2399137  50.9841966  31.0067118  78.4463026
  51.5535823  30.2174703  77.2866581  44.7360844  32.0395138  66.1620956
  44.7131532  32.1382825  65.2102839  45.0461480  32.8860289  66.4838122
  47.3948222  34.0971293  70.2767570  48.3491475  34.0655235  70.2097502
  47.1960745  33.6361917  71.0917796  47.9847604  32.6672409  72.8438368
  48.8040493  33.1616488  72.8673205  48.2584411  31.7504377  72.8155936
  57.7414200  25.0583161  62.2066324  56.8540055  25.3432812  61.9886518
  58.1568189  24.8976925  61.3593601  61.0928736  25.0829682  65.9220663
  61.8689126  25.5726135  66.1945280  60.3676870  25.5087736  66.3792532
  63.5301295  25.7957301  66.9794604  64.1245785  25.5553037  66.2687912
  63.6027878  25.0764432  67.6068140  61.5260030  26.3627429  63.2466733
  61.2696964  25.9624065  64.0774941  60.9012898  27.0771223  63.1216872
  65.8372367  29.1023502  65.7538025  65.2771925  29.1716692  66.5269587
  65.2315871  28.9264487  65.0337521  43.2382518  27.0010543  73.5430565
  43.8841382  26.4909497  74.0317790  43.0299669  27.7379224  74.1173990
  55.7635910  34.0691390  79.0422706  56.6327070  34.2432043  78.6809341
  55.2842662  34.8885807  78.9198435  51.7586128  21.2650587  59.2954461
  51.7464798  22.2092427  59.4522732  52.6509550  21.0820733  59.0013923
  55.5738248  17.8593364  63.5500398  54.8070644  17.3051851  63.6957081
  55.9848953  17.9315233  64.4114550  47.5780009  24.1478160  77.6405579
  48.4411471  23.7914965  77.8508904  47.0045420  23.8092055  78.3280984
  64.7137875  46.8842296  74.3415711  64.7026516  46.4895094  73.4696214
  64.8758515  46.1508369  74.9349482  72.3778082  43.4406703  66.4254167
  73.1103253  42.8705920  66.6591996  71.6217437  43.0528304  66.8660673
  69.9003502  37.1528277  70.8848776  69.5686827  38.0223688  70.6609991
  69.3049115  36.8364561  71.5642806  66.3935021  49.3540823  70.2844688
  66.0935744  50.2565862  70.1760496  66.0486081  49.0873007  71.1365841
  63.8673031  43.2913009  75.9077023  63.0906365  43.8506929  75.8979888
  64.5063594  43.7769792  76.4291893  71.6593812  40.0739802  69.7420000
  71.0168192  40.3672335  69.0959794  71.1548740  39.9592722  70.5473196
  62.1219403  46.0998462  75.4694990  62.8634088  46.6383506  75.1929814
  61.4156389  46.7264751  75.6266542  67.5974743  48.2427603  74.0667151
  68.0058099  47.8010013  73.3221784  66.8752004  47.6680230  74.3201344
  67.9203558  48.8028794  67.8219440  67.2912420  48.9674508  67.1195508
  67.5329220  49.2170403  68.5930404  71.7992789  49.7383231  65.1763804
  71.1143828  50.1182133  64.6260837  71.8836639  50.3478558  65.9095752
  67.1005258  40.8404578  73.0981882  66.8566190  41.5946639  72.5616158
  67.3765189  41.2189926  73.9329129  69.0543721  47.3843190  71.7759148
  69.2660616  48.0274950  71.0993529  69.0073469  46.5505507  71.3081078
  60.8580767  43.2538111  76.2710300  60.2279428  43.9354392  76.5045697
  60.7516855  43.1421192  75.3263438  70.1689549  50.2615146  69.9481505
  70.9906993  49.8595333  69.6664187  70.1651952  50.1583380  70.8997621
  78.2595542  46.6053894  66.2966476  77.5059250  46.0361292  66.1410481
  78.3943083  46.5716559  67.2437111  60.1361510  37.5558877  78.6335551
  59.7428455  37.0025075  79.3083195  60.9527650  37.8669455  79.0242069
  63.0529471  38.9716756  76.2255808  63.7939184  39.5723909  76.1460270
  63.2847394  38.2294393  75.6673850  65.2762646  52.0990863  76.1021538
  64.8326501  51.3127242  75.7842442  65.9379860  52.2870014  75.4365429
  67.3743885  52.3793663  74.1302939  67.3562360  53.2002544  73.6383208
  68.2963805  52.2547738  74.3553080  63.8316939  49.8937793  74.9726447
  64.3645275  49.1326081  74.7425755  63.3031020  49.6011444  75.7150602
  66.9986634  34.9997859  70.5020089  66.6550903  35.8899500  70.4259200
  67.3665596  34.8099516  69.6389674  66.0783174  37.3702514  68.4669322
  65.5747970  37.3332649  67.6537128  66.3713781  38.2795256  68.5265979
  70.1762497  47.2172806  67.6012306  69.5186172  47.9072067  67.6892434
  70.9802897  47.6069237  67.9446292  68.1962692  52.3899676  64.7145208
  68.4885666  52.9504733  63.9957574  68.7061312  52.6828237  65.4698367
  68.7974299  34.2591418  65.6037827  69.1033176  33.3988781  65.3163742
  69.5226904  34.8509038  65.4036821  66.6061951  43.6364095  72.7019291
  66.9611338  43.8635568  73.5613756  67.2534082  43.9682472  72.0796546
  72.3629067  48.8259058  68.4179891  72.7965574  48.7334347  69.2662945
  73.0760648  48.8016558  67.7799907  66.0956962  52.4261152  69.9512992
  66.1493984  52.9952088  70.7190708  65.2271743  52.5963037  69.5867029
  73.2244617  48.8682759  70.9512777  73.4180507  49.7728569  71.1972052
  73.1245235  48.4090178  71.7851362  64.8780928  38.7540649  73.4503104
  64.2308843  39.4530599  73.3567580  65.6481943  39.1876793  73.8179352
  68.2859725  49.0189501  76.5253657  68.1345232  48.7900053  75.6083741
  68.2764405  49.9760103  76.5385002  65.0545062  46.5921414  71.5099924
  65.9837122  46.7432574  71.3368891  64.6336092  46.6805435  70.6548570
  65.4038609  49.9953681  66.6687299  65.0688441  49.9554451  67.5644949
  64.9042554  49.3298397  66.1957709  69.9951932  52.0508624  74.6030139
  69.9364478  51.3667844  73.9360722  70.3971450  52.7927614  74.1510765
  69.9969339  50.0148208  72.8344119  69.1096118  49.6774130  72.9570518
  70.5667890  49.2831239  73.0712884  74.4786680  45.4256425  67.5960680
  74.4676556  46.3081141  67.2254614  73.6104059  45.0727976  67.4015218
  65.9869176  54.5736494  71.9563521  66.6997148  55.2083959  71.8839422
  65.4959205  54.6700360  71.1403523  69.0675917  36.6885653  68.1021748
  68.1538997  36.9189880  68.2703955  69.4969019  36.7724097  68.9535780
  68.8382376  44.8775545  70.6021642  68.1853826  45.1251453  69.9474095
  69.2162756  44.0639683  70.2684119  65.7989550  54.9135238  64.7049812
  65.9811944  54.0956894  65.1677564  66.6222536  55.1302931  64.2674702
  64.8869949  45.6195356  77.0887679  64.2110586  45.5189485  77.7590054
  65.7097583  45.4634570  77.5523676  58.0809497  41.3460566  75.5740214
  58.7081536  40.9637643  76.1877738  57.2237416  41.1274768  75.9395906
  68.4803606  51.7523541  77.1793949  69.0243510  52.3653499  76.6848904
  67.8990451  52.3103120  77.6960962  66.7661119  54.8744259  68.3108977
  66.6412258  54.0733999  67.8019923  67.4240210  55.3690452  67.8222947
  68.8296027  52.6753279  69.9388527  67.8826363  52.5558630  69.8666854
  69.1778800  51.7875777  70.0214789  61.1895601  38.5647418  73.7626769
  61.7130003  38.8109715  74.5253078  60.9707934  39.3967453  73.3429906
  65.8342461  52.4705995  66.1392879  65.6867423  51.5422703  66.3200449
  66.6595954  52.4926086  65.6549955  69.4376582  53.2934554  67.2257752
  70.3623130  53.0877415  67.0882203  69.2691886  53.0450955  68.1347094
  62.3948146  39.5061113  71.4476440  62.0544966  38.7068926  71.8497119
  61.6887152  39.8062824  70.8753273  63.0464618  36.5910426  69.9003763
  63.8690687  36.1170904  69.7782653  63.2902681  37.3700909  70.4002449
  75.0811290  46.5756645  64.2010143  75.5242436  45.8263970  63.8029267
  74.2037800  46.5666781  63.8183875  61.3177555  40.6678472  77.2354134
  61.3665710  41.5440595  76.8531903  61.8600069  40.1255865  76.6625777
  71.8032400  51.2119595  76.5155271  71.0127944  51.1943734  75.9759770
  71.5665755  51.7507889  77.2704307  71.9230275  48.0612062  73.8287999
  71.9728280  47.8962069  74.7703522  71.8144199  47.1939321  73.4385880
  69.2134038  44.0442990  75.1447306  70.1143901  43.9049454  74.8531304
  69.2882012  44.2097444  76.0845483  63.5476843  41.4209844  73.9900492
  62.6780153  41.7143410  73.7183081  63.7836323  42.0050289  74.7107756
  73.4248472  50.4809003  74.0730021  73.1333281  50.8438984  74.9093482
  72.8120604  49.7676011  73.8943353  74.6244155  48.0461883  66.5932591
  75.4591046  48.4851687  66.7570151  74.7603283  47.5700536  65.7740837
  71.6735660  45.6041618  72.5410079  72.1489782  45.7969264  71.7328930
  70.7501226  45.6600804  72.2953462  66.2515877  37.6389461  71.5065913
  66.7697821  38.3750488  71.1812401  65.8971010  37.9453455  72.3412672
  66.5028471  34.0589744  67.0266809  66.7830225  33.3912933  67.6527236
  67.2879078  34.2518839  66.5141473  70.3737329  42.4807378  70.7738384
  71.3254752  42.5805475  70.7950608  70.2040780  41.6885646  71.2836469
  68.3951709  39.5662961  70.9597785  67.8001641  39.8467974  70.2644274
  68.1101406  40.0556862  71.7314526  72.8525407  45.7013497  69.8880684
  72.8201727  44.7629498  70.0740368  73.4626031  45.7797534  69.1546509
  73.0019896  42.4924541  69.9338967  72.4858944  41.7082998  69.7468896
  73.8859844  42.1643258  70.0985487  70.6630623  36.2365556  65.8934780
  70.4655444  35.9280645  66.7778112  71.2730328  36.9627195  66.0232710
  78.6701957  46.7629504  69.0286721  79.4005346  46.5014792  69.5894424
  78.0608903  46.0258226  69.0688789  76.7517254  44.9037367  69.6261172
  76.0250418  44.7693332  69.0177664  76.3364541  45.2114196  70.4317890
  64.5747431  48.6227297  77.3908545  65.4950440  48.8005896  77.5848591
  64.5397014  47.6783342  77.2388244  66.4204269  36.1174463  63.6431311
  66.9735308  36.5369917  64.3021334  66.6574356  35.1910211  63.6854267
  62.4437369  42.1061537  79.4234075  62.3434095  43.0555894  79.3546166
  62.2258911  41.7779776  78.5510145  68.2486643  37.6280046  65.3531296
  68.7486421  37.7396581  64.5445615  68.8922251  37.3241099  65.9932104
  62.3068639  45.5358676  78.2399137  61.8235720  46.3359036  78.4463026
  62.3929578  45.5466621  77.2866581  71.9322491  40.4121600  65.9220663
  72.7082881  40.9018052  66.1945280  71.2070625  40.8379654  66.3792532
  74.3695049  41.1249219  66.9794604  74.9639540  40.8844955  66.2687912
  74.4421633  40.4056350  67.6068140  76.6766122  44.4315420  65.7538025
  76.1165680  44.5008609  66.5269587  76.0709625  44.2556405  65.0337521
  54.0776272  42.3302460  73.5430565  54.7235136  41.8201414  74.0317790
  53.8693424  43.0671142  74.1173990  66.6029665  49.3983308  79.0422706
  67.4720824  49.5723960  78.6809341  66.1236416  50.2177725  78.9198435
  66.4132002  33.1885282  63.5500398  65.6464398  32.6343768  63.6957081
  66.8242707  33.2607150  64.4114550  58.4173763  39.4770078  77.6405579
  59.2805225  39.1206882  77.8508904  57.8439174  39.1383972  78.3280984
  78.2622140  61.1071934  68.4467980  78.9000550  60.9878681  67.7431321
  78.1442983  62.0552778  68.5055933  75.0711847  61.0599362  68.3829505
  74.7330358  60.9440427  67.4950040  75.9401615  60.6590527  68.3630511
  70.9298662  62.9134838  64.3726396  70.3663527  62.8224775  63.6042684
  70.8151057  62.0934743  64.8528889  75.5531630  62.2134214  74.3415711
  75.5420270  61.8187012  73.4696214  75.7152269  61.4800286  74.9349482
  68.4763094  64.4086030  67.2110617  69.2684386  64.0676855  66.7956916
  68.7159744  64.5181005  68.1312770  76.5098221  66.5805806  59.6840861
  75.8586201  67.1659887  59.2974875  77.3042584  67.1112001  59.7435898
  72.2738891  64.9971326  73.2894895  71.9828757  65.9016956  73.1741561
  72.9095875  65.0387853  74.0038964  73.1995098  62.3748174  69.8796254
  73.7958670  62.1504196  69.1653217  73.2570069  61.6332920  70.4821702
  77.8163409  58.8323388  65.5221188  78.6026498  58.4142811  65.1711605
  78.0802113  59.7369480  65.6902837  77.9873486  64.2696238  60.2209845
  77.3519319  64.3430865  60.9330750  77.6570893  64.8589837  59.5428925
  83.2171836  58.7698621  66.4254167  83.9497008  58.1997838  66.6591996
  82.4611192  58.3820221  66.8660673  74.8347956  61.1925862  63.6217509
  74.4706163  60.6656483  64.3330431  75.6915072  60.8024331  63.4483995
  80.7397256  52.4820195  70.8848776  80.4080581  53.3515606  70.6609991
  80.1442870  52.1656479  71.5642806  77.2328776  64.6832741  70.2844688
  76.9329499  65.5857780  70.1760496  76.8879835  64.4164924  71.1365841
  70.6841257  61.1346538  66.3181393  69.7591754  61.0022752  66.5259085
  70.9325671  61.9140757  66.8151335  80.6325920  57.2015281  67.9642126
  79.7242797  57.1330690  67.6700887  80.5813515  57.6787226  68.7923951
  68.0450068  60.7779811  67.1525182  68.1742450  61.0314290  68.0664594
  67.3647520  61.3707519  66.8329837  72.2149556  71.4477061  63.2515656
  72.1373585  72.3984886  63.3304137  71.6111199  71.1022934  63.9090582
  74.7066785  58.6204927  75.9077023  73.9300120  59.1798847  75.8979888
  75.3457348  59.1061710  76.4291893  82.4987566  55.4031720  69.7420000
  81.8561946  55.6964253  69.0959794  81.9942495  55.2884640  70.5473196
  72.9613158  61.4290380  75.4694990  73.7027842  61.9675424  75.1929814
  72.2550143  62.0556669  75.6266542  78.4368497  63.5719521  74.0667151
  78.8451853  63.1301931  73.3221784  77.7145759  62.9972148  74.3201344
  74.7899567  58.5092127  71.4400708  75.6360763  58.9331541  71.5835357
  74.7298205  57.8525752  72.1339271  78.7597312  64.1320711  67.8219440
  78.1306174  64.2966425  67.1195508  78.3722974  64.5462321  68.5930404
  82.6386544  65.0675149  65.1763804  81.9537582  65.4474050  64.6260837
  82.7230393  65.6770476  65.9095752  77.9399013  56.1696496  73.0981882
  77.6959945  56.9238556  72.5616158  78.2158943  56.5481843  73.9329129
  79.8937476  62.7135108  71.7759148  80.1054371  63.3566868  71.0993529
  79.8467224  61.8797425  71.3081078  77.4963704  55.3252929  68.6795720
  76.6348184  55.6234182  68.9712457  77.5226139  55.5423328  67.7476752
  74.3125274  63.8695119  65.0869525  74.7763619  64.1482822  64.2974148
  74.0482072  62.9678564  64.9042616  71.2049355  63.4166601  68.0249289
  71.7750712  63.8453869  67.3866773  71.7957467  63.1349186  68.7233474
  73.2494160  59.9918272  61.8959091  73.9518203  60.4439315  62.3633017
  72.9174788  59.3502091  62.5238984  71.6974521  58.5830028  76.2710300
  71.0673182  59.2646309  76.5045697  71.5910609  58.4713110  75.3263438
  66.9919494  58.2501824  67.1976224  66.2018548  58.5059353  66.7216335
  67.4830741  59.0650162  67.3028265  81.0083303  65.5907064  69.9481505
  81.8300747  65.1887251  69.6664187  81.0045706  65.4875298  70.8997621
  74.7739907  65.1391107  72.1042215  74.8384339  65.6011514  72.9400387
  74.0650831  64.5088472  72.2324525  65.2757197  58.5032315  69.6291215
  65.5265235  59.3879325  69.8948791  65.8116745  58.3236916  68.8566307
  89.0989297  61.9345812  66.2966476  88.3453005  61.3653210  66.1410481
  89.2336838  61.9008477  67.2437111  74.4887925  66.8059214  61.9721196
  74.3533599  67.6510750  62.4006044  75.0297737  67.0078492  61.2087130
  70.9755264  52.8850794  78.6335551  70.5822210  52.3316993  79.3083195
  71.7921405  53.1961373  79.0242069  69.7512207  67.4400409  64.6271874
  69.9278835  68.3618373  64.4392858  70.5469040  67.1258828  65.0566254
  73.8923225  54.3008673  76.2255808  74.6332939  54.9015826  76.1460270
  74.1241148  53.5586311  75.6673850  69.0364563  59.4865041  74.5034037
  68.9218078  58.5850298  74.8041136  68.1809081  59.7328737  74.1518854
  76.1156401  67.4282781  76.1021538  75.6720255  66.6419159  75.7842442
  76.7773615  67.6161931  75.4365429  70.8743522  68.9578582  70.6282216
  71.4250947  68.8295646  69.8559210  70.0354998  69.2573471  70.2777109
  78.2137639  67.7085581  74.1302939  78.1956114  68.5294462  73.6383208
  79.1357559  67.5839656  74.3553080  74.6710693  65.2229710  74.9726447
  75.2039030  64.4617998  74.7425755  74.1424774  64.9303362  75.7150602
  77.8380388  50.3289776  70.5020089  77.4944658  51.2191418  70.4259200
  78.2059351  50.1391434  69.6389674  75.3877782  55.1648088  64.0677763
  74.5319378  54.7754938  63.8883401  75.8004734  55.2440049  63.2077548
  76.9176929  52.6994431  68.4669322  76.4141724  52.6624567  67.6537128
  77.2107535  53.6087174  68.5265979  73.1619814  52.7833161  67.4735504
  74.0272811  52.5875970  67.1141394  73.2297323  52.5543513  68.4004861
  82.7764945  63.0730742  60.9445698  81.9994388  62.7341901  60.5000860
  83.4556426  63.0783365  60.2700663  77.5916974  58.1925479  60.8352305
  77.2867110  58.5071629  61.6862449  78.5447416  58.2706899  60.8779638
  76.0363406  64.3515703  62.4845259  75.5084767  63.6168462  62.1718497
  75.5350909  65.1290379  62.2385228  81.0156252  62.5464723  67.6012306
  80.3579926  63.2363985  67.6892434  81.8196651  62.9361155  67.9446292
  70.7682134  55.0135369  64.8451871  71.3425885  54.7910551  64.1125064
  71.3553116  55.0824064  65.5980472  79.8261711  60.9009096  65.6516248
  80.3393592  61.5339088  66.1537957  80.4762935  60.3010291  65.2859608
  73.0704801  51.8876618  63.5726940  72.4169214  51.5725635  62.9483555
  73.0285275  51.2652358  64.2986763  77.0884085  70.8793420  58.4076919
  76.4145784  71.1825117  59.0161877  77.4749907  71.6822501  58.0582376
  76.3042542  58.3758551  67.8974588  75.3865103  58.5973498  67.7396276
  76.7202685  58.4504862  67.0386295  77.0877589  59.7749967  63.0277268
  77.8349408  60.2871364  62.7184390  77.3569179  59.4534020  63.8881662
  75.3604240  62.2708508  60.0104223  74.4515459  61.9867541  60.1076692
  75.3899323  62.6907586  59.1507529  80.5923507  65.8815097  63.7795390
  80.1385834  65.0406007  63.8360581  79.9617474  66.5176496  64.1170170
  79.5356426  56.8107083  65.0096058  78.7979183  56.2984470  65.3406300
  79.7883200  56.3707465  64.1979334  79.0356446  67.7191594  64.7145208
  79.3279421  68.2796651  63.9957574  79.5455067  68.0120155  65.4698367
  79.6368054  49.5883335  65.6037827  79.9426931  48.7280699  65.3163742
  80.3620659  50.1800956  65.4036821  73.9089134  59.8837128  66.1114018
  73.9637743  58.9310965  66.0356495  73.0980336  60.0396568  66.5955316
  71.8481493  58.5014188  63.8704397  71.0349359  58.8008359  64.2769589
  72.3440488  58.1069877  64.5878879  73.9990071  68.4971945  65.8038662
  73.9566250  68.7232791  64.8747194  74.9152770  68.2635320  65.9524463
  77.4455705  58.9656013  72.7019291  77.8005093  59.1927486  73.5613756
  78.0927836  59.2974389  72.0796546  83.1753442  62.0874449  63.4068620
  83.0371341  62.2776045  62.4789809  82.8189661  62.8493831  63.8636671
  71.3395568  56.0732544  69.4865632  71.9794948  55.9321303  68.7888595
  70.5073099  55.7867057  69.1104234  83.2022822  64.1550976  68.4179891
  83.6359328  64.0626265  69.2662945  83.9154402  64.1308476  67.7799907
  72.1155872  65.3734974  65.6000624  72.9096471  64.8785294  65.3983199
  71.4047565  64.8452837  65.2368330  76.9350717  67.7553070  69.9512992
  76.9887739  68.3244006  70.7190708  76.0665498  67.9254955  69.5867029
  69.8149110  57.4570626  71.4337443  70.4872163  57.2487988  70.7850092
  68.9878897  57.2592712  70.9942675  84.0638371  64.1974676  70.9512777
  84.2574261  65.1020487  71.1972052  83.9638989  63.7382095  71.7851362
  75.7174682  54.0832567  73.4503104  75.0702597  54.7822516  73.3567580
  76.4875697  54.5168711  73.8179352  79.1253480  64.3481419  76.5253657
  78.9738986  64.1191971  75.6083741  79.1158159  65.3052020  76.5385002
  75.8938816  61.9213332  71.5099924  76.8230876  62.0724491  71.3368891
  75.4729846  62.0097353  70.6548570  74.6927148  65.9463996  69.2798461
  74.5538234  65.5782781  70.1524399  73.9041744  66.4611636  69.1082419
  75.2875300  71.0473093  60.6223998  75.4627056  70.5761136  61.4369621
  74.6008088  71.6738859  60.8505259  76.2432363  65.3245599  66.6687299
  75.9082196  65.2846369  67.5644949  75.7436309  64.6590315  66.1957709
  70.2176607  60.7313229  72.1939880  70.0796405  59.9993468  72.7951419
  71.1281531  60.6422129  71.9124068  72.8458908  60.4433188  71.6823560
  73.5558526  59.8026380  71.6410178  72.8028216  60.6946083  72.6049741
  80.8345687  67.3800542  74.6030139  80.7758233  66.6959762  73.9360722
  81.2365205  68.1219532  74.1510765  71.5587842  57.4298406  73.5019199
  71.0225199  56.9789145  74.1540796  70.9704550  57.5644315  72.7589664
  69.8536385  74.1962455  67.3963858  70.0932984  74.8280980  68.0742877
  69.0105582  73.8450495  67.6829217  80.8363094  65.3440125  72.8344119
  79.9489873  65.0066047  72.9570518  81.4061645  64.6123157  73.0712884
  67.2926963  56.5654414  70.5872194  67.2085152  55.9580083  69.8522604
  66.4709670  57.0563432  70.5881690  74.3664247  70.0041578  69.8005362
  74.2934419  70.8096549  70.3124667  73.9241640  70.2033544  68.9753383
  74.1554027  69.2413348  63.3108184  73.3721549  69.7835028  63.4046408
  74.8546772  69.7587327  63.7102425  77.4650677  55.0507977  65.9542389
  77.9619377  54.2977940  65.6343459  76.6937658  55.0872294  65.3885598
  85.3180434  60.7548343  67.5960680  85.3070311  61.6373058  67.2254614
  84.4497814  60.4019894  67.4015218  76.8262931  69.9028412  71.9563521
  77.5390903  70.5375877  71.8839422  76.3352959  69.9992278  71.1403523
  78.5480458  63.8079665  63.5280812  77.6136736  63.9281127  63.3585517
  78.7257126  62.9052131  63.2640822  74.0485646  57.1925360  65.6814074
  73.6783433  56.6396401  66.3694979  74.5444738  56.5883494  65.1289074
  81.9353009  59.6496984  64.0630846  82.4013461  60.4824975  63.9891149
  82.3860510  59.1841965  64.7676105  71.8774844  67.6522855  72.7769091
  72.5784304  68.2859338  72.9298486  71.4069959  67.9937587  72.0164731
  80.0029240  65.9940805  61.0616999  80.2789084  65.8797400  61.9710873
  79.1333739  65.5958290  61.0229172  79.9069672  52.0177571  68.1021748
  78.9932752  52.2481798  68.2703955  80.3362773  52.1016015  68.9535780
  79.6776130  60.2067463  70.6021642  79.0247581  60.4543370  69.9474095
  80.0556510  59.3931601  70.2684119  76.6383304  70.2427156  64.7049812
  76.8205699  69.4248812  65.1677564  77.4616290  70.4594848  64.2674702
  76.9725470  69.1695341  61.9664861  77.5013236  68.6587796  61.3535023
  77.2353689  68.8537871  62.8310394  75.7263703  60.9487274  77.0887679
  75.0504340  60.8481403  77.7590054  76.5491337  60.7926488  77.5523676
  67.4742562  67.1859210  69.7100194  68.0595999  66.4402898  69.8428098
  67.2767401  67.4963167  70.5936858  70.3281218  70.2210458  64.7262637
  69.6591593  70.7056585  64.2426677  70.1894087  70.4679678  65.6406015
  74.4686486  72.2554201  71.3245295  75.0204794  72.4185823  72.0894380
  74.8092680  72.8458639  70.6525320  69.4450979  54.6029351  71.9267180
  69.5092306  55.4644182  71.5144577  69.3818100  53.9903353  71.1939538
  68.9203252  56.6752484  75.5740214  69.5475291  56.2929561  76.1877738
  68.0631171  56.4566686  75.9395906  79.3197360  67.0815459  77.1793949
  79.8637264  67.6945417  76.6848904  78.7384205  67.6395037  77.6960962
  77.6054873  70.2036177  68.3108977  77.4806013  69.4025917  67.8019923
  78.2633965  70.6982370  67.8222947  69.2263042  56.5584909  67.4886117
  68.5049627  57.1720877  67.3493591  70.0156297  57.0942674  67.4102763
  79.6689782  68.0045197  69.9388527  78.7220117  67.8850548  69.8666854
  80.0172555  67.1167695  70.0214789  72.0289355  53.8939336  73.7626769
  72.5523757  54.1401632  74.5253078  71.8101688  54.7259371  73.3429906
  76.6736215  67.7997913  66.1392879  76.5261178  66.8714621  66.3200449
  77.4989709  67.8218004  65.6549955  80.2770337  68.6226472  67.2257752
  81.2016884  68.4169333  67.0882203  80.1085640  68.3742873  68.1347094
  73.2341900  54.8353031  71.4476440  72.8938721  54.0360844  71.8497119
  72.5280907  55.1354742  70.8753273  73.8858372  51.9202343  69.9003763
  74.7084441  51.4462822  69.7782653  74.1296436  52.6992827  70.4002449
  76.6697729  55.6535751  61.1324997  76.8861344  56.5360389  60.8313825
  76.1891797  55.2621964  60.4030639  71.4096951  58.6121464  67.7095741
  71.2641532  58.9261767  68.6020023  70.9322154  59.2306364  67.1566640
  73.2693334  55.6024012  67.7576631  73.2554902  54.7065105  67.4208929
  73.9865762  55.6094676  68.3914917  75.1219464  56.0361352  69.8029758
  74.8637242  56.9578423  69.8014089  74.5904505  55.6391787  70.4930222
  80.0665653  69.1412139  62.5819844  80.2402531  68.5758562  61.8293696
  80.5594544  69.9413034  62.3999334  65.8842613  61.1526808  70.6483402
  65.3396081  61.9286616  70.7803677  66.7621963  61.4997613  70.4902524
  75.5421420  52.1693303  66.1630921  75.5643117  52.2332636  65.2082900
  75.9589479  51.3297811  66.3571427  85.9205044  61.9048562  64.2010143
  86.3636190  61.1555887  63.8029267  85.0431555  61.8958699  63.8183875
  81.0540826  68.4578904  59.6816742  81.7491730  69.0785596  59.9004057
  81.3963976  67.6074255  59.9569120  66.6708635  60.2796705  73.5413559
  65.9290371  60.4279340  74.1278190  66.3501379  60.5404970  72.6780309
  82.9532249  65.9078609  61.2104073  83.4783573  66.2465882  60.4853393
  82.8654601  64.9725625  61.0267207  74.6152297  69.8212683  73.3393949
  74.9239424  69.5761830  74.2116649  75.4127780  70.0259321  72.8512820
  74.6372910  71.9750592  65.5699326  74.1977900  71.4826971  66.2632183
  75.3881026  71.4323560  65.3291401  67.1165249  68.1662133  65.5723954
  67.9423268  67.8665905  65.1922597  66.7659301  67.3969756  66.0213743
  72.0846782  67.5188602  67.6421628  71.4626791  66.8559307  67.3423855
  72.7551649  67.5449733  66.9595275  72.1571309  55.9970390  77.2354134
  72.2059465  56.8732512  76.8531903  72.6993823  55.4547783  76.6625777
  82.6426155  66.5411513  76.5155271  81.8521699  66.5235652  75.9759770
  82.4059509  67.0799807  77.2704307  82.7624030  63.3903979  73.8287999
  82.8122035  63.2253987  74.7703522  82.6537953  62.5231238  73.4385880
  71.6460289  66.0692525  61.1180088  71.7948409  66.7527989  60.4646761
  72.4526732  66.0497615  61.6329544  80.0527792  59.3734907  75.1447306
  80.9537655  59.2341372  74.8531304  80.1275767  59.5389362  76.0845483
  74.3870598  56.7501762  73.9900492  73.5173907  57.0435328  73.7183081
  74.6230078  57.3342207  74.7107756  84.2642227  65.8100921  74.0730021
  83.9727035  66.1730901  74.9093482  83.6514358  65.0967929  73.8943353
  85.4637909  63.3753801  66.5932591  86.2984800  63.8143605  66.7570151
  85.5997038  62.8992454  65.7740837  82.5129415  60.9333535  72.5410079
  82.9883537  61.1261182  71.7328930  81.5894980  60.9892721  72.2953462
  77.0909631  52.9681379  71.5065913  77.6091575  53.7042406  71.1812401
  76.7364764  53.2745372  72.3412672  77.3422226  49.3881661  67.0266809
  77.6223979  48.7204851  67.6527236  78.1272833  49.5810757  66.5141473
  75.1455694  68.5640655  58.5891835  74.5729661  69.1830843  58.1362307
  75.7188488  69.1140017  59.1231757  81.2131084  57.8099295  70.7738384
  82.1648507  57.9097393  70.7950608  81.0434534  57.0177564  71.2836469
  79.2345463  54.8954879  70.9597785  78.6395396  55.1759891  70.2644274
  78.9495160  55.3848780  71.7314526  78.3652954  68.8477806  59.7200418
  79.2983627  68.7823367  59.9233293  78.2776167  69.6834072  59.2614950
  80.9940971  68.1643676  56.6804365  80.9154602  67.8303539  57.5740123
  81.8150637  68.6565444  56.6795838  83.6919162  61.0305415  69.8880684
  83.6595482  60.0921416  70.0740368  84.3019785  61.1089452  69.1546509
  83.8413650  57.8216459  69.9338967  83.3252699  57.0374915  69.7468896
  84.7253599  57.4935175  70.0985487  81.5024377  51.5657474  65.8934780
  81.3049198  51.2572562  66.7778112  82.1124083  52.2919113  66.0232710
  89.5095712  62.0921422  69.0286721  90.2399100  61.8306710  69.5894424
  88.9002657  61.3550144  69.0688789  87.5911009  60.2329285  69.6261172
  86.8644172  60.0985250  69.0177664  87.1758296  60.5406113  70.4317890
  75.4141185  63.9519214  77.3908545  76.3344195  64.1297813  77.5848591
  75.3790768  63.0075260  77.2388244  68.4103258  61.8620249  70.0331326
  68.6289267  62.7937357  70.0519360  68.8229032  61.5028223  70.8186130
  75.3307476  52.3688334  62.0207014  74.5208204  52.0235419  62.3962261
  76.0191892  52.0595878  62.6094626  77.2598024  51.4466381  63.6431311
  77.8129062  51.8661834  64.3021334  77.4968110  50.5202129  63.6854267
  73.2831123  57.4353455  79.4234075  73.1827850  58.3847812  79.3546166
  73.0652665  57.1071694  78.5510145  80.6376831  53.5566906  63.1509975
  80.0575500  54.2151710  62.7688028  80.3712764  52.7344251  62.7397393
  79.0880397  52.9571964  65.3531296  79.5880176  53.0688498  64.5445615
  79.7316005  52.6533017  65.9932104  73.1462393  60.8650594  78.2399137
  72.6629475  61.6650954  78.4463026  73.2323332  60.8758538  77.2866581
  69.0735731  64.7555128  70.2767570  70.0278984  64.7239071  70.2097502
  68.8748254  64.2945752  71.0917796  69.6635113  63.3256244  72.8438368
  70.4828002  63.8200323  72.8673205  69.9371920  62.4088212  72.8155936
  79.4201709  55.7166997  62.2066324  78.5327564  56.0016647  61.9886518
  79.8355698  55.5560760  61.3593601  82.7716245  55.7413518  65.9220663
  83.5476635  56.2309970  66.1945280  82.0464379  56.1671572  66.3792532
  85.2088804  56.4541137  66.9794604  85.8033294  56.2136873  66.2687912
  85.2815387  55.7348267  67.6068140  67.4285959  70.2974748  67.2937768
  67.2940427  69.5375149  66.7275766  67.0118022  71.0215648  66.8266557
  79.3942733  61.2321533  62.4216614  79.3377934  61.6890084  61.5824246
  79.9471075  60.4712217  62.2439457  83.2047539  57.0211264  63.2466733
  82.9484473  56.6207900  64.0774941  82.5800407  57.7355058  63.1216872
  87.5159876  59.7607338  65.7538025  86.9559434  59.8300527  66.5269587
  86.9103380  59.5848322  65.0337521  70.5855085  71.1944065  67.5056211
  70.4687469  72.1389497  67.4034901  69.7647531  70.8917626  67.8942010
  80.4731620  65.9194200  58.3512804  81.3077224  65.4875399  58.1690278
  80.3115963  65.7476214  59.2789698  64.9170027  57.6594378  73.5430565
  65.5628891  57.1493332  74.0317790  64.7087178  58.3963060  74.1173990
  77.4423419  64.7275226  79.0422706  78.3114579  64.9015878  78.6809341
  76.9630171  65.5469642  78.9198435  71.6109599  71.8472327  70.7212139
  72.5136846  71.8795937  71.0378634  71.3846969  70.9172778  70.7358475
  73.3663201  70.6003313  67.3822218  72.4158832  70.6005175  67.2686590
  73.6695688  69.8536048  66.8658253  77.2525757  48.5177199  63.5500398
  76.4858153  47.9635686  63.6957081  77.6636462  48.5899068  64.4114550
  69.2567518  54.8061995  77.6405579  70.1198979  54.4498800  77.8508904
  68.6832929  54.4675890  78.3280984  89.1015895  76.4363852  68.4467980
  89.7394305  76.3170599  67.7431321  88.9836738  77.3844696  68.5055933
  85.9105601  76.3891280  68.3829505  85.5724113  76.2732344  67.4950040
  86.7795369  75.9882445  68.3630511  81.7692417  78.2426756  64.3726396
  81.2057282  78.1516693  63.6042684  81.6544812  77.4226661  64.8528889
  86.3925384  77.5426131  74.3415711  86.3814025  77.1478930  73.4696214
  86.5546024  76.8092204  74.9349482  79.3156849  79.7377948  67.2110617
  80.1078141  79.3968772  66.7956916  79.5553499  79.8472923  68.1312770
  87.3491976  81.9097724  59.6840861  86.6979955  82.4951804  59.2974875
  88.1436338  82.4403919  59.7435898  81.2747603  78.9986861  60.0827995
  82.0478479  78.4515848  59.9440871  81.6273002  79.8631110  60.2942457
  83.1132645  80.3263243  73.2894895  82.8222511  81.2308874  73.1741561
  83.7489630  80.3679771  74.0038964  84.0388852  77.7040092  69.8796254
  84.6352424  77.4796114  69.1653217  84.0963824  76.9624837  70.4821702
  83.6113881  75.1579527  57.7146445  83.8639401  74.6361048  56.9529908
  82.6738440  74.9945672  57.8173129  88.6557163  74.1615305  65.5221188
  89.4420253  73.7434729  65.1711605  88.9195868  75.0661398  65.6902837
  88.8267241  79.5988156  60.2209845  88.1913074  79.6722782  60.9330750
  88.4964647  80.1881755  59.5428925  94.0565590  74.0990539  66.4254167
  94.7890762  73.5289755  66.6591996  93.3004946  73.7112139  66.8660673
  83.3310169  77.0607633  59.9170820  83.2146427  76.3852536  60.5851905
  83.4412429  76.5740007  59.1002973  85.6741710  76.5217780  63.6217509
  85.3099917  75.9948401  64.3330431  86.5308826  76.1316249  63.4483995
  91.5791011  67.8112113  70.8848776  91.2474336  68.6807524  70.6609991
  90.9836624  67.4948397  71.5642806  85.3147197  71.5507680  58.6178858
  85.4821600  72.4187916  58.9849329  85.1244366  71.7134961  57.6940147
  88.0722530  80.0124659  70.2844688  87.7723253  80.9149698  70.1760496
  87.7273590  79.7456842  71.1365841  81.5235012  76.4638456  66.3181393
  80.5985508  76.3314670  66.5259085  81.7719425  77.2432675  66.8151335
  91.4719674  72.5307199  67.9642126  90.5636551  72.4622607  67.6700887
  91.4207270  73.0079144  68.7923951  85.2936418  74.0065337  59.6025525
  85.1736043  74.4522388  60.4411005  84.5989006  74.3550655  59.0439063
  78.8843823  76.1071729  67.1525182  79.0136204  76.3606208  68.0664594
  78.2041274  76.6999437  66.8329837  83.0543310  86.7768979  63.2515656
  82.9767340  87.7276804  63.3304137  82.4504954  86.4314852  63.9090582
  85.5460540  73.9496844  75.9077023  84.7693874  74.5090765  75.8979888
  86.1851103  74.4353627  76.4291893  93.3381321  70.7323637  69.7420000
  92.6955701  71.0256170  69.0959794  92.8336249  70.6176558  70.5473196
  90.9921484  74.4786810  60.4305859  91.9039340  74.7114197  60.2553556
  90.4831131  75.0623855  59.8680937  83.8006912  76.7582298  75.4694990
  84.5421597  77.2967342  75.1929814  83.0943898  77.3848587  75.6266542
  89.2762252  78.9011438  74.0667151  89.6845608  78.4593849  73.3221784
  88.5539513  78.3264066  74.3201344  85.6293322  73.8384045  71.4400708
  86.4754517  74.2623459  71.5835357  85.5691960  73.1817669  72.1339271
  89.5991067  79.4612629  67.8219440  88.9699929  79.6258343  67.1195508
  89.2116729  79.8754238  68.5930404  93.4780298  80.3967067  65.1763804
  92.7931337  80.7765968  64.6260837  93.5624148  81.0062393  65.9095752
  88.7792767  71.4988413  73.0981882  88.5353699  72.2530474  72.5616158
  89.0552698  71.8773761  73.9329129  90.7331230  78.0427026  71.7759148
  90.9448125  78.6858786  71.0993529  90.6860978  77.2089342  71.3081078
  88.3357459  70.6544846  68.6795720  87.4741938  70.9526100  68.9712457
  88.3619894  70.8715245  67.7476752  85.1519028  79.1987037  65.0869525
  85.6157374  79.4774740  64.2974148  84.8875827  78.2970482  64.9042616
  82.0443109  78.7458519  68.0249289  82.6144467  79.1745787  67.3866773
  82.6351221  78.4641103  68.7233474  84.0887914  75.3210189  61.8959091
  84.7911958  75.7731233  62.3633017  83.7568543  74.6794008  62.5238984
  82.5368276  73.9121946  76.2710300  81.9066937  74.5938227  76.5045697
  82.4304364  73.8005028  75.3263438  77.8313248  73.5793742  67.1976224
  77.0412302  73.8351271  66.7216335  78.3224496  74.3942080  67.3028265
  91.8477058  80.9198981  69.9481505  92.6694502  80.5179168  69.6664187
  91.8439461  80.8167215  70.8997621  79.7827994  73.9438321  64.1559701
  78.9859157  74.0557016  64.6743196  79.5553586  74.2824974  63.2900591
  85.6133661  80.4683025  72.1042215  85.6778094  80.9303432  72.9400387
  84.9044585  79.8380389  72.2324525  76.1150951  73.8324232  69.6291215
  76.3658990  74.7171242  69.8948791  76.6510500  73.6528834  68.8566307
  99.9383051  77.2637730  66.2966476  99.1846759  76.6945128  66.1410481
 100.0730592  77.2300394  67.2437111  85.3281679  82.1351132  61.9721196
  85.1927354  82.9802668  62.4006044  85.8691492  82.3370410  61.2087130
  81.8149019  68.2142712  78.6335551  81.4215964  67.6608910  79.3083195
  82.6315159  68.5253290  79.0242069  78.7811076  79.6526570  62.5449121
  79.2935597  80.4469820  62.6954686  79.4333789  78.9552860  62.4782722
  80.5905961  82.7692326  64.6271874  80.7672590  83.6910291  64.4392858
  81.3862795  82.4550746  65.0566254  84.7316980  69.6300591  76.2255808
  85.4726693  70.2307744  76.1460270  84.9634903  68.8878229  75.6673850
  79.8758318  74.8156958  74.5034037  79.7611833  73.9142215  74.8041136
  79.0202835  75.0620655  74.1518854  86.9550155  82.7574699  76.1021538
  86.5114010  81.9711077  75.7842442  87.6167369  82.9453849  75.4365429
  81.7137277  84.2870500  70.6282216  82.2644702  84.1587563  69.8559210
  80.8748753  84.5865389  70.2777109  89.0531394  83.0377498  74.1302939
  89.0349869  83.8586379  73.6383208  89.9751314  82.9131574  74.3553080
  85.5104448  80.5521628  74.9726447  86.0432784  79.7909916  74.7425755
  84.9818529  80.2595280  75.7150602  88.6774143  65.6581694  70.5020089
  88.3338412  66.5483336  70.4259200  89.0453105  65.4683352  69.6389674
  76.7459993  77.9815224  63.3208691  77.5835215  78.3912233  63.1042399
  76.9238261  77.0414667  63.2908885  88.6424425  75.6490305  59.0092524
  88.1271049  76.4194910  59.2480912  88.3701734  74.9755441  59.6325586
  86.2271536  70.4940006  64.0677763  85.3713133  70.1046856  63.8883401
  86.6398488  70.5731967  63.2077548  87.7570683  68.0286349  68.4669322
  87.2535479  67.9916484  67.6537128  88.0501290  68.9379092  68.5265979
  84.0013569  68.1125079  67.4735504  84.8666566  67.9167887  67.1141394
  84.0691078  67.8835431  68.4004861  93.6158699  78.4022660  60.9445698
  92.8388142  78.0633819  60.5000860  94.2950180  78.4075283  60.2700663
  88.4310729  73.5217397  60.8352305  88.1260864  73.8363546  61.6862449
  89.3841171  73.5998817  60.8779638  86.8757160  79.6807620  62.4845259
  86.3478522  78.9460380  62.1718497  86.3744663  80.4582297  62.2385228
  91.8550006  77.8756641  67.6012306  91.1973681  78.5655902  67.6892434
  92.6590406  78.2653073  67.9446292  81.6075888  70.3427287  64.8451871
  82.1819640  70.1202468  64.1125064  82.1946870  70.4115981  65.5980472
  90.6655465  76.2301014  65.6516248  91.1787347  76.8631005  66.1537957
  91.3156689  75.6302209  65.2859608  81.9345475  72.3731748  58.8647756
  81.0982787  72.7106434  59.1857031  81.7950245  72.2380728  57.9274893
  83.9098556  67.2168536  63.5726940  83.2562968  66.9017553  62.9483555
  83.8679030  66.5944276  64.2986763  85.0209761  77.4987831  55.4880233
  84.1136822  77.2677084  55.6871381  85.5180793  76.7025450  55.6754214
  87.9277839  86.2085338  58.4076919  87.2539538  86.5117035  59.0161877
  88.3143661  87.0114418  58.0582376  87.1436296  73.7050469  67.8974588
  86.2258857  73.9265416  67.7396276  87.5596440  73.7796780  67.0386295
  87.9271344  75.1041885  63.0277268  88.6743163  75.6163282  62.7184390
  88.1962933  74.7825938  63.8881662  86.1997994  77.6000426  60.0104223
  85.2909213  77.3159458  60.1076692  86.2293078  78.0199504  59.1507529
  91.4317261  81.2107015  63.7795390  90.9779589  80.3697925  63.8360581
  90.8011228  81.8468413  64.1170170  90.3750181  72.1399001  65.0096058
  89.6372938  71.6276387  65.3406300  90.6276955  71.6999383  64.1979334
  89.8750201  83.0483512  64.7145208  90.1673175  83.6088569  63.9957574
  90.3848821  83.3412073  65.4698367  90.4761808  64.9175253  65.6037827
  90.7820685  64.0572617  65.3163742  91.2014413  65.5092873  65.4036821
  76.7686164  75.3205940  63.9919425  76.5710564  74.7275300  63.2670491
  76.2132828  75.0158150  64.7095364  84.7482888  75.2129046  66.1114018
  84.8031498  74.2602883  66.0356495  83.9374090  75.3688485  66.5955316
  85.8974082  79.1409169  57.3492301  85.4593512  78.4245028  56.8897939
  86.6384523  79.3685284  56.7877393  82.6875248  73.8306106  63.8704397
  81.8743113  74.1300276  64.2769589  83.1834242  73.4361795  64.5878879
  84.8383826  83.8263863  65.8038662  84.7960005  84.0524709  64.8747194
  85.7546525  83.5927237  65.9524463  88.2849460  74.2947930  72.7019291
  88.6398847  74.5219403  73.5613756  88.9321591  74.6266307  72.0796546
  94.0147197  77.4166366  63.4068620  93.8765095  77.6067962  62.4789809
  93.6583415  78.1785749  63.8636671  82.1789323  71.4024461  69.4865632
  82.8188702  71.2613221  68.7888595  81.3466853  71.1158975  69.1104234
  94.0416576  79.4842893  68.4179891  94.4753083  79.3918182  69.2662945
  94.7548157  79.4600394  67.7799907  82.9549627  80.7026892  65.6000624
  83.7490225  80.2077212  65.3983199  82.2441319  80.1744755  65.2368330
  87.7744471  83.0844987  69.9512992  87.8281493  83.6535924  70.7190708
  86.9059252  83.2546872  69.5867029  79.2632390  74.8469974  61.6760377
  78.3329978  74.7854429  61.8930339  79.3589862  74.3245926  60.8797018
  79.1817939  71.3724786  64.2638619  79.4424756  72.2870120  64.1547779
  80.0035111  70.9049229  64.4135231  80.6542864  72.7862544  71.4337443
  81.3265918  72.5779906  70.7850092  79.8272651  72.5884630  70.9942675
  94.9032126  79.5266594  70.9512777  95.0968016  80.4312404  71.1972052
  94.8032744  79.0674013  71.7851362  86.5568436  69.4124484  73.4503104
  85.9096352  70.1114434  73.3567580  87.3269452  69.8460628  73.8179352
  89.9647234  79.6773337  76.5253657  89.8132741  79.4483888  75.6083741
  89.9551914  80.6343938  76.5385002  86.7332571  77.2505249  71.5099924
  87.6624631  77.4016409  71.3368891  86.3123601  77.3389270  70.6548570
  85.5320903  81.2755914  69.2798461  85.3931988  80.9074698  70.1524399
  84.7435499  81.7903553  69.1082419  86.1269055  86.3765010  60.6223998
  86.3020810  85.9053053  61.4369621  85.4401843  87.0030776  60.8505259
  87.0826118  80.6537517  66.6687299  86.7475950  80.6138286  67.5644949
  86.5830063  79.9882232  66.1957709  81.0570362  76.0605147  72.1939880
  80.9190160  75.3285385  72.7951419  81.9675285  75.9714047  71.9124068
  90.0185309  77.9993551  56.9424359  89.4014480  77.2740379  56.8457411
  89.5501798  78.7602911  56.5991433  83.6852662  75.7725106  71.6823560
  84.3952281  75.1318298  71.6410178  83.6421971  76.0238001  72.6049741
  91.6739441  82.7092459  74.6030139  91.6151987  82.0251679  73.9360722
  92.0758959  83.4511449  74.1510765  82.3981596  72.7590324  73.5019199
  81.8618953  72.3081062  74.1540796  81.8098305  72.8936233  72.7589664
  80.6930140  89.5254373  67.3963858  80.9326738  90.1572897  68.0742877
  79.8499336  89.1742413  67.6829217  81.8083855  72.2178975  56.0645663
  80.9313322  72.0967776  55.7007910  82.2841608  71.4265053  55.8124552
  91.6756848  80.6732043  72.8344119  90.7883627  80.3357965  72.9570518
  92.2455399  79.9415074  73.0712884  73.3285995  77.0056135  66.1587170
  74.0157035  76.6917865  65.5708186  73.1734124  77.9097500  65.8854422
  78.1320718  71.8946331  70.5872194  78.0478906  71.2872001  69.8522604
  77.3103424  72.3855350  70.5881690  85.2058002  85.3333495  69.8005362
  85.1328173  86.1388467  70.3124667  84.7635395  85.5325461  68.9753383
  84.9947781  84.5705266  63.3108184  84.2115303  85.1126946  63.4046408
  85.6940527  85.0879245  63.7102425  88.3044431  70.3799895  65.9542389
  88.8013131  69.6269857  65.6343459  87.5331413  70.4164212  65.3885598
  96.1574189  76.0840261  67.5960680  96.1464065  76.9664976  67.2254614
  95.2891568  75.7311811  67.4015218  87.6656685  85.2320330  71.9563521
  88.3784657  85.8667794  71.8839422  87.1746714  85.3284196  71.1403523
  89.3874212  79.1371582  63.5280812  88.4530491  79.2573045  63.3585517
  89.5650881  78.2344049  63.2640822  84.8879400  72.5217278  65.6814074
  84.5177188  71.9688318  66.3694979  85.3838493  71.9175411  65.1289074
  92.7746764  74.9788901  64.0630846  93.2407216  75.8116893  63.9891149
  93.2254264  74.5133883  64.7676105  82.7168599  82.9814773  72.7769091
  83.4178058  83.6151256  72.9298486  82.2463714  83.3229505  72.0164731
  90.8422995  81.3232723  61.0616999  91.1182839  81.2089317  61.9710873
  89.9727493  80.9250208  61.0229172  90.7463426  67.3469488  68.1021748
  89.8326506  67.5773715  68.2703955  91.1756528  67.4307933  68.9535780
  90.5169885  75.5359380  70.6021642  89.8641335  75.7835288  69.9474095
  90.8950265  74.7223519  70.2684119  87.4777059  85.5719074  64.7049812
  87.6599453  84.7540730  65.1677564  88.3010045  85.7886766  64.2674702
  87.8119224  84.4987259  61.9664861  88.3406991  83.9879713  61.3535023
  88.0747444  84.1829789  62.8310394  86.5657458  76.2779191  77.0887679
  85.8898095  76.1773321  77.7590054  87.3885092  76.1218405  77.5523676
  78.3136317  82.5151128  69.7100194  78.8989754  81.7694816  69.8428098
  78.1161155  82.8255085  70.5936858  81.1674972  85.5502375  64.7262637
  80.4985347  86.0348503  64.2426677  81.0287842  85.7971596  65.6406015
  72.9053972  75.0856728  68.4304637  72.9438071  74.5520319  69.2241755
  72.3994264  74.5591934  67.8115615  85.3080241  87.5846119  71.3245295
  85.8598549  87.7477740  72.0894380  85.6486434  88.1750557  70.6525320
  80.2844734  69.9321269  71.9267180  80.3486060  70.7936100  71.5144577
  80.2211854  69.3195270  71.1939538  79.7597006  72.0044401  75.5740214
  80.3869045  71.6221479  76.1877738  78.9024925  71.7858603  75.9395906
  90.1591115  82.4107376  77.1793949  90.7031019  83.0237335  76.6848904
  89.5777960  82.9686955  77.6960962  76.5362549  73.8120830  61.5058569
  76.8315990  72.9031509  61.4525622  75.6350585  73.7908570  61.1839571
  88.4448628  85.5328094  68.3108977  88.3199767  84.7317834  67.8019923
  89.1027719  86.0274288  67.8222947  80.0656796  71.8876827  67.4886117
  79.3443382  72.5012795  67.3493591  80.8550052  72.4234592  67.4102763
  90.5083536  83.3337115  69.9388527  89.5613872  83.2142466  69.8666854
  90.8566309  82.4459613  70.0214789  82.8683110  69.2231253  73.7626769
  83.3917512  69.4693550  74.5253078  82.6495443  70.0551288  73.3429906
  78.2650391  71.4934928  61.6297894  77.9363097  70.6132307  61.4473000
  78.6189761  71.4382597  62.5174283  87.5129970  83.1289831  66.1392879
  87.3654932  82.2006538  66.3200449  88.3383463  83.1509921  65.6549955
  81.3792214  71.7807898  61.9973372  81.7188286  72.3093819  61.2751980
  81.8264334  72.1188304  62.7731938  91.1164091  83.9518389  67.2257752
  92.0410639  83.7461251  67.0882203  90.9479395  83.7034791  68.1347094
  84.0735655  70.1644949  71.4476440  83.7332475  69.3652762  71.8497119
  83.3674661  70.4646659  70.8753273  84.7252127  67.2494261  69.9003763
  85.5478196  66.7754739  69.7782653  84.9690190  68.0284745  70.4002449
  83.3660361  70.2782519  60.1966664  84.0868724  70.6563772  59.6930381
  82.7425665  70.9971396  60.3001642  87.5091484  70.9827668  61.1324997
  87.7255098  71.8652306  60.8313825  87.0285551  70.5913882  60.4030639
  82.2490705  73.9413382  67.7095741  82.1035286  74.2553685  68.6020023
  81.7715909  74.5598282  67.1566640  84.1087088  70.9315930  67.7576631
  84.0948657  70.0357023  67.4208929  84.8259516  70.9386593  68.3914917
  85.9613219  71.3653270  69.8029758  85.7030997  72.2870340  69.8014089
  85.4298259  70.9683704  70.4930222  90.9059408  84.4704057  62.5819844
  91.0796285  83.9050479  61.8293696  91.3988299  85.2704952  62.3999334
  76.7236367  76.4818726  70.6483402  76.1789836  77.2578534  70.7803677
  77.6015717  76.8289531  70.4902524  83.5123984  69.8130310  63.0264201
  83.6339895  68.8846956  63.2255088  83.2226026  69.8268996  62.1142516
  86.3815175  67.4985220  66.1630921  86.4036871  67.5624553  65.2082900
  86.7983234  66.6589729  66.3571427  96.7598799  77.2340480  64.2010143
  97.2029945  76.4847805  63.8029267  95.8825309  77.2250616  63.8183875
  91.8934580  83.7870821  59.6816742  92.5885485  84.4077514  59.9004057
  92.2357730  82.9366173  59.9569120  77.5102389  75.6088622  73.5413559
  76.7684125  75.7571258  74.1278190  77.1895134  75.8696888  72.6780309
  93.7926003  81.2370527  61.2104073  94.3177327  81.5757800  60.4853393
  93.7048356  80.3017542  61.0267207  85.4546052  85.1504601  73.3393949
  85.7633178  84.9053747  74.2116649  86.2521534  85.3551239  72.8512820
  85.4766664  87.3042510  65.5699326  85.0371654  86.8118889  66.2632183
  86.2274781  86.7615478  65.3291401  77.9559003  83.4954051  65.5723954
  78.7817023  83.1957823  65.1922597  77.6053055  82.7261673  66.0213743
  82.9240536  82.8480519  67.6421628  82.3020545  82.1851224  67.3423855
  83.5945403  82.8741651  66.9595275  76.1567608  81.4140377  66.5312888
  75.3199516  80.9862552  66.3496889  76.1291253  81.6072821  67.4683679
  82.9965064  71.3262307  77.2354134  83.0453219  72.2024430  76.8531903
  83.5387578  70.7839700  76.6625777  93.4819909  81.8703431  76.5155271
  92.6915453  81.8527569  75.9759770  93.2453264  82.4091724  77.2704307
  93.6017784  78.7195897  73.8287999  93.6515789  78.5545904  74.7703522
  93.4931708  77.8523156  73.4385880  82.4854043  81.3984443  61.1180088
  82.6342163  82.0819907  60.4646761  83.2920487  81.3789533  61.6329544
  90.8921547  74.7026825  75.1447306  91.7931410  74.5633290  74.8531304
  90.9669521  74.8681280  76.0845483  85.2264352  72.0793680  73.9900492
  84.3567662  72.3727246  73.7183081  85.4623832  72.6634125  74.7107756
  95.1035981  81.1392838  74.0730021  94.8120790  81.5022819  74.9093482
  94.4908113  80.4259847  73.8943353  96.3031664  78.7045718  66.5932591
  97.1378555  79.1435522  66.7570151  96.4390792  78.2284371  65.7740837
  93.3523169  76.2625453  72.5410079  93.8277291  76.4553099  71.7328930
  92.4288735  76.3184639  72.2953462  80.2406676  77.4249620  62.1241157
  79.9952718  76.5211950  62.3221367  80.4102591  77.4266771  61.1820635
  87.9303386  68.2973297  71.5065913  88.4485330  69.0334324  71.1812401
  87.5758519  68.6037290  72.3412672  79.5102324  73.1577978  59.6227318
  78.8171569  73.2322333  58.9667354  79.2654076  72.3938321  60.1448835
  88.1815980  64.7173579  67.0266809  88.4617734  64.0496768  67.6527236
  88.9666587  64.9102675  66.5141473  85.9849449  83.8932573  58.5891835
  85.4123416  84.5122760  58.1362307  86.5582242  84.4431935  59.1231757
  92.0524838  73.1391213  70.7738384  93.0042261  73.2389311  70.7950608
  91.8828289  72.3469482  71.2836469  90.0739218  70.2246796  70.9597785
  89.4789150  70.5051809  70.2644274  89.7888915  70.7140697  71.7314526
  89.2046708  84.1769723  59.7200418  90.1377382  84.1115285  59.9233293
  89.1169921  85.0125990  59.2614950  91.8334725  83.4935594  56.6804365
  91.7548357  83.1595457  57.5740123  92.6544392  83.9857361  56.6795838
  94.5312916  76.3597333  69.8880684  94.4989236  75.4213334  70.0740368
  95.1413540  76.4381370  69.1546509  86.3696247  75.2293386  55.9307888
  87.3155352  75.0999594  55.9996306  85.9910492  74.4908048  56.4077316
  94.6807405  73.1508376  69.9338967  94.1646453  72.3666833  69.7468896
  95.5647353  72.8227093  70.0985487  92.3418132  66.8949392  65.8934780
  92.1442953  66.5864480  66.7778112  92.9517837  67.6211031  66.0232710
 100.3489466  77.4213340  69.0286721 101.0792855  77.1598628  69.5894424
  99.7396412  76.6842062  69.0688789  98.4304763  75.5621202  69.6261172
  97.7037927  75.4277167  69.0177664  98.0152050  75.8698031  70.4317890
  86.2534940  79.2811132  77.3908545  87.1737949  79.4589731  77.5848591
  86.2184523  78.3367177  77.2388244  84.5539164  73.1543362  55.8662773
  83.6470620  72.8576475  55.9425487  84.8315145  72.8573180  54.9997059
  75.4717105  74.4749726  66.3161820  75.1519889  73.6215034  66.0236194
  74.9250533  74.6898304  67.0719787  79.2497012  77.1912167  70.0331326
  79.4683022  78.1229274  70.0519360  79.6622786  76.8320141  70.8186130
  86.1701230  67.6980252  62.0207014  85.3601958  67.3527337  62.3962261
  86.8585647  67.3887796  62.6094626  88.0991778  66.7758299  63.6431311
  88.6522817  67.1953752  64.3021334  88.3361865  65.8494047  63.6854267
  84.1224878  72.7645372  79.4234075  84.0221604  73.7139729  79.3546166
  83.9046420  72.4363611  78.5510145  83.3237949  70.0130297  56.0074752
  84.1857113  70.3385196  56.2670570  83.5088293  69.2261793  55.4947818
  75.3405365  78.0952637  68.2854941  74.6468836  77.6806590  67.7724896
  76.0878356  78.1373174  67.6888360  91.4770585  68.8858824  63.1509975
  90.8969254  69.5443628  62.7688028  91.2106518  68.0636168  62.7397393
  89.9274152  68.2863882  65.3531296  90.4273930  68.3980416  64.5445615
  90.5709760  67.9824934  65.9932104  83.9856148  76.1942511  78.2399137
  83.5023229  76.9942871  78.4463026  84.0717087  76.2050456  77.2866581
  77.2542107  78.0270891  66.1620956  77.2312795  78.1258578  65.2102839
  77.5642744  78.8736042  66.4838122  79.9129485  80.0847046  70.2767570
  80.8672739  80.0530988  70.2097502  79.7142009  79.6237670  71.0917796
  80.5028867  78.6548162  72.8438368  81.3221756  79.1492241  72.8673205
  80.7765675  77.7380130  72.8155936  90.2595463  71.0458914  62.2066324
  89.3721318  71.3308565  61.9886518  90.6749452  70.8852678  61.3593601
  93.6110000  71.0705435  65.9220663  94.3870390  71.5601888  66.1945280
  92.8858134  71.4963489  66.3792532  96.0482558  71.7833054  66.9794604
  96.6427049  71.5428790  66.2687912  96.1209142  71.0640185  67.6068140
  78.2679714  85.6266665  67.2937768  78.1334182  84.8667066  66.7275766
  77.8511776  86.3507565  66.8266557  89.4038677  80.8103589  56.3014344
  90.1074527  81.0153591  56.9171999  88.6801326  81.3780351  56.5663427
  90.2336487  76.5613450  62.4216614  90.1771689  77.0182002  61.5824246
  90.7864830  75.8004135  62.2439457  94.0441293  72.3503182  63.2466733
  93.7878227  71.9499818  64.0774941  93.4194161  73.0646976  63.1216872
  98.3553631  75.0899255  65.7538025  97.7953189  75.1592445  66.5269587
  97.7497134  74.9140240  65.0337521  81.4248840  86.5235982  67.5056211
  81.3081224  87.4681415  67.4034901  80.6041286  86.2209544  67.8942010
  91.3125374  81.2486118  58.3512804  92.1470978  80.8167317  58.1690278
  91.1509717  81.0768132  59.2789698  90.9671266  77.7518231  59.7169143
  90.9120070  77.5862503  58.7757587  90.3417322  78.4594264  59.8731333
  75.7563781  72.9886296  73.5430565  76.4022645  72.4785250  74.0317790
  75.5480933  73.7254977  74.1173990  88.2817174  80.0567143  79.0422706
  89.1508333  80.2307796  78.6809341  87.8023925  80.8761560  78.9198435
  84.2767392  67.2526340  59.2954461  84.2646062  68.1968180  59.4522732
  85.1690814  67.0696486  59.0013923  82.4503354  87.1764244  70.7212139
  83.3530601  87.2087855  71.0378634  82.2240724  86.2464695  70.7358475
  84.2056956  85.9295231  67.3822218  83.2552587  85.9297092  67.2686590
  84.5089442  85.1827965  66.8658253  88.0919511  63.8469117  63.5500398
  87.3251907  63.2927604  63.6957081  88.5030216  63.9190986  64.4114550
  80.0961272  70.1353913  77.6405579  80.9592734  69.7790718  77.8508904
  79.5226683  69.7967808  78.3280984  99.9409649  91.7655769  68.4467980
 100.5788059  91.6462517  67.7431321  99.8230492  92.7136613  68.5055933
  96.7499356  91.7183197  68.3829505  96.4117867  91.6024262  67.4950040
  97.6189124  91.3174362  68.3630511  92.6086171  93.5718674  64.3726396
  92.0451036  93.4808611  63.6042684  92.4938566  92.7518578  64.8528889
  97.2319139  92.8718049  74.3415711  97.2207779  92.4770847  73.4696214
  97.3939778  92.1384122  74.9349482  90.1550603  95.0669865  67.2110617
  90.9471895  94.7260690  66.7956916  90.3947253  95.1764840  68.1312770
  92.1141357  94.3278779  60.0827995  92.8872233  93.7807766  59.9440871
  92.4666756  95.1923028  60.2942457  93.9526400  95.6555161  73.2894895
  93.6616266  96.5600792  73.1741561  94.5883384  95.6971688  74.0038964
  94.8782607  93.0332009  69.8796254  95.4746179  92.8088032  69.1653217
  94.9357578  92.2916755  70.4821702  94.4507635  90.4871445  57.7146445
  94.7033156  89.9652966  56.9529908  93.5132194  90.3237590  57.8173129
  99.4950918  89.4907223  65.5221188 100.2814007  89.0726646  65.1711605
  99.7589622  90.3953315  65.6902837  99.6660995  94.9280073  60.2209845
  99.0306828  95.0014700  60.9330750  99.3358402  95.5173672  59.5428925
 104.8959345  89.4282456  66.4254167 105.6284517  88.8581673  66.6591996
 104.1398701  89.0404057  66.8660673  94.1703924  92.3899551  59.9170820
  94.0540182  91.7144454  60.5851905  94.2806184  91.9031925  59.1002973
  96.5135465  91.8509698  63.6217509  96.1493672  91.3240319  64.3330431
  97.3702581  91.4608167  63.4483995 102.4184765  83.1404030  70.8848776
 102.0868090  84.0099441  70.6609991 101.8230379  82.8240314  71.5642806
  96.1540952  86.8799597  58.6178858  96.3215354  87.7479834  58.9849329
  95.9638121  87.0426879  57.6940147  98.9116285  95.3416576  70.2844688
  98.6117008  96.2441615  70.1760496  98.5667344  95.0748760  71.1365841
  92.3628766  91.7930373  66.3181393  91.4379263  91.6606587  66.5259085
  92.6113180  92.5724592  66.8151335 102.3113429  87.8599117  67.9642126
 101.4030306  87.7914525  67.6700887 102.2601024  88.3371061  68.7923951
  96.1330173  89.3357255  59.6025525  96.0129798  89.7814306  60.4411005
  95.4382761  89.6842573  59.0439063  89.7237577  91.4363647  67.1525182
  89.8529959  91.6898126  68.0664594  89.0435029  92.0291355  66.8329837
  96.3854294  89.2788762  75.9077023  95.6087628  89.8382682  75.8979888
  97.0244857  89.7645545  76.4291893 104.1775075  86.0615555  69.7420000
 103.5349455  86.3548088  69.0959794 103.6730004  85.9468475  70.5473196
 101.8315239  89.8078728  60.4305859 102.7433095  90.0406115  60.2553556
 101.3224886  90.3915772  59.8680937  94.6400667  92.0874216  75.4694990
  95.3815351  92.6259259  75.1929814  93.9337652  92.7140504  75.6266542
 100.1156006  94.2303356  74.0667151 100.5239362  93.7885766  73.3221784
  99.3933268  93.6555983  74.3201344  96.4687076  89.1675963  71.4400708
  97.3148272  89.5915376  71.5835357  96.4085714  88.5109587  72.1339271
 100.4384821  94.7904547  67.8219440  99.8093683  94.9550261  67.1195508
 100.0510483  95.2046156  68.5930404  99.6186522  86.8280331  73.0981882
  99.3747454  87.5822392  72.5616158  99.8946452  87.2065679  73.9329129
 101.5724985  93.3718943  71.7759148 101.7841880  94.0150703  71.0993529
 101.5254733  92.5381260  71.3081078  99.1751213  85.9836764  68.6795720
  98.3135693  86.2818018  68.9712457  99.2013648  86.2007163  67.7476752
  95.9912783  94.5278955  65.0869525  96.4551128  94.8066658  64.2974148
  95.7269581  93.6262399  64.9042616  92.8836864  94.0750436  68.0249289
  93.4538221  94.5037705  67.3866773  93.4744976  93.7933021  68.7233474
  94.9281669  90.6502107  61.8959091  95.6305712  91.1023151  62.3633017
  94.5962297  90.0085926  62.5238984  93.3762030  89.2413864  76.2710300
  92.7460691  89.9230145  76.5045697  93.2698118  89.1296945  75.3263438
  88.6707003  88.9085660  67.1976224  87.8806057  89.1643188  66.7216335
  89.1618250  89.7233998  67.3028265  90.6221748  89.2730239  64.1559701
  89.8252912  89.3848933  64.6743196  90.3947340  89.6116891  63.2900591
  96.4527416  95.7974942  72.1042215  96.5171848  96.2595349  72.9400387
  95.7438340  95.1672307  72.2324525  86.9544706  89.1616150  69.6291215
  87.2052744  90.0463160  69.8948791  87.4904254  88.9820752  68.8566307
  96.1675434  97.4643050  61.9721196  96.0321108  98.3094585  62.4006044
  96.7085246  97.6662327  61.2087130  92.6542773  83.5434630  78.6335551
  92.2609719  82.9900828  79.3083195  93.4708914  83.8545208  79.0242069
  89.6204831  94.9818488  62.5449121  90.1329352  95.7761738  62.6954686
  90.2727544  94.2844778  62.4782722  91.4299716  98.0984244  64.6271874
  91.6066344  99.0202209  64.4392858  92.2256549  97.7842663  65.0566254
  95.5710734  84.9592509  76.2255808  96.3120448  85.5599662  76.1460270
  95.8028657  84.2170146  75.6673850  90.7152072  90.1448876  74.5034037
  90.6005587  89.2434133  74.8041136  89.8596590  90.3912573  74.1518854
  92.5531031  99.6162418  70.6282216  93.1038456  99.4879481  69.8559210
  91.7142507  99.9157307  70.2777109  96.3498202  95.8813546  74.9726447
  96.8826539  95.1201834  74.7425755  95.8212283  95.5887197  75.7150602
  99.5167897  80.9873612  70.5020089  99.1732167  81.8775253  70.4259200
  99.8846860  80.7975269  69.6389674  87.5853748  93.3107142  63.3208691
  88.4228970  93.7204150  63.1042399  87.7632015  92.3706584  63.2908885
  99.4818180  90.9782223  59.0092524  98.9664803  91.7486827  59.2480912
  99.2095488  90.3047359  59.6325586  97.0665291  85.8231923  64.0677763
  96.2106887  85.4338774  63.8883401  97.4792243  85.9023884  63.2077548
  98.5964438  83.3578267  68.4669322  98.0929233  83.3208402  67.6537128
  98.8895044  84.2671009  68.5265979  94.8407323  83.4416996  67.4735504
  95.7060320  83.2459805  67.1141394  94.9084832  83.2127348  68.4004861
  99.2704483  88.8509315  60.8352305  98.9654619  89.1655464  61.6862449
 100.2234925  88.9290735  60.8779638  97.7150915  95.0099538  62.4845259
  97.1872276  94.2752298  62.1718497  97.2138418  95.7874214  62.2385228
  92.4469642  85.6719204  64.8451871  93.0213394  85.4494386  64.1125064
  93.0340625  85.7407899  65.5980472 101.5049220  91.5592931  65.6516248
 102.0181101  92.1922923  66.1537957 102.1550444  90.9594127  65.2859608
  92.7739230  87.7023665  58.8647756  91.9376542  88.0398352  59.1857031
  92.6343999  87.5672645  57.9274893  94.7492310  82.5460453  63.5726940
  94.0956723  82.2309470  62.9483555  94.7072784  81.9236194  64.2986763
  95.8603515  92.8279748  55.4880233  94.9530577  92.5969002  55.6871381
  96.3574547  92.0317368  55.6754214  97.9830051  89.0342387  67.8974588
  97.0652612  89.2557334  67.7396276  98.3990194  89.1088697  67.0386295
  98.7665098  90.4333802  63.0277268  99.5136917  90.9455200  62.7184390
  99.0356688  90.1117855  63.8881662  97.0391748  92.9292343  60.0104223
  96.1302968  92.6451376  60.1076692  97.0686832  93.3491422  59.1507529
 101.2143935  87.4690919  65.0096058 100.4766692  86.9568305  65.3406300
 101.4670709  87.0291300  64.1979334 101.3155563  80.2467171  65.6037827
 101.6214440  79.3864534  65.3163742 102.0408168  80.8384791  65.4036821
  87.6079919  90.6497857  63.9919425  87.4104319  90.0567218  63.2670491
  87.0526583  90.3450068  64.7095364  95.5876643  90.5420964  66.1114018
  95.6425252  89.5894800  66.0356495  94.7767845  90.6980403  66.5955316
  96.7367836  94.4701087  57.3492301  96.2987266  93.7536946  56.8897939
  97.4778277  94.6977202  56.7877393  93.5269002  89.1598024  63.8704397
  92.7136868  89.4592194  64.2769589  94.0227997  88.7653712  64.5878879
  99.1243214  89.6239848  72.7019291  99.4792602  89.8511321  73.5613756
  99.7715345  89.9558225  72.0796546  93.0183077  86.7316379  69.4865632
  93.6582457  86.5905138  68.7888595  92.1860608  86.4450892  69.1104234
  93.7943381  96.0318810  65.6000624  94.5883980  95.5369130  65.3983199
  93.0835073  95.5036673  65.2368330  90.1026145  90.1761891  61.6760377
  89.1723733  90.1146347  61.8930339  90.1983617  89.6537844  60.8797018
  90.0211694  86.7016704  64.2638619  90.2818511  87.6162037  64.1547779
  90.8428866  86.2341147  64.4135231  91.4936619  88.1154461  71.4337443
  92.1659672  87.9071823  70.7850092  90.6666405  87.9176547  70.9942675
  97.3962191  84.7416402  73.4503104  96.7490106  85.4406352  73.3567580
  98.1663206  85.1752546  73.8179352  97.5726325  92.5797167  71.5099924
  98.5018385  92.7308327  71.3368891  97.1517355  92.6681188  70.6548570
  96.3714657  96.6047831  69.2798461  96.2325743  96.2366616  70.1524399
  95.5829253  97.1195471  69.1082419  97.9219872  95.9829434  66.6687299
  97.5869705  95.9430204  67.5644949  97.4223818  95.3174150  66.1957709
  91.8964116  91.3897064  72.1939880  91.7583914  90.6577303  72.7951419
  92.8069040  91.3005964  71.9124068 100.8579064  93.3285469  56.9424359
 100.2408235  92.6032297  56.8457411 100.3895552  94.0894829  56.5991433
  94.5246417  91.1017024  71.6823560  95.2346035  90.4610216  71.6410178
  94.4815725  91.3529918  72.6049741  93.2375351  88.0882241  73.5019199
  92.7012708  87.6372980  74.1540796  92.6492059  88.2228150  72.7589664
  92.6477610  87.5470893  56.0645663  91.7707076  87.4259694  55.7007910
  93.1235363  86.7556971  55.8124552  84.1679750  92.3348053  66.1587170
  84.8550790  92.0209783  65.5708186  84.0127879  93.2389417  65.8854422
  88.9714472  87.2238249  70.5872194  88.8872661  86.6163919  69.8522604
  88.1497178  87.7147267  70.5881690  99.1438186  85.7091813  65.9542389
  99.6406886  84.9561775  65.6343459  98.3725167  85.7456129  65.3885598
 100.2267967  94.4663500  63.5280812  99.2924245  94.5864962  63.3585517
 100.4044635  93.5635967  63.2640822  95.7273155  87.8509196  65.6814074
  95.3570942  87.2980236  66.3694979  96.2232247  87.2467329  65.1289074
 103.6140518  90.3080819  64.0630846 104.0800970  91.1408811  63.9891149
 104.0648019  89.8425801  64.7676105  93.5562353  98.3106691  72.7769091
  94.2571813  98.9443174  72.9298486  93.0857468  98.6521422  72.0164731
 101.5857181  82.6761406  68.1021748 100.6720261  82.9065633  68.2703955
 102.0150282  82.7599850  68.9535780 101.3563639  90.8651298  70.6021642
 100.7035089  91.1127206  69.9474095 101.7344019  90.0515436  70.2684119
  97.4051212  91.6071109  77.0887679  96.7291849  91.5065238  77.7590054
  98.2278846  91.4510323  77.5523676  89.1530071  97.8443046  69.7100194
  89.7383508  97.0986734  69.8428098  88.9554910  98.1547002  70.5936858
  92.0068727 100.8794293  64.7262637  91.3379102 101.3640421  64.2426677
  91.8681596 101.1263514  65.6406015  83.7447726  90.4148646  68.4304637
  83.7831826  89.8812237  69.2241755  83.2388019  89.8883851  67.8115615
  91.1238488  85.2613186  71.9267180  91.1879815  86.1228017  71.5144577
  91.0605609  84.6487188  71.1939538  90.5990761  87.3336319  75.5740214
  91.2262800  86.9513396  76.1877738  89.7418680  87.1150521  75.9395906
  87.3756304  89.1412748  61.5058569  87.6709745  88.2323426  61.4525622
  86.4744339  89.1200488  61.1839571  90.9050551  87.2168745  67.4886117
  90.1837136  87.8304712  67.3493591  91.6943806  87.7526509  67.4102763
  93.7076864  84.5523171  73.7626769  94.2311266  84.7985468  74.5253078
  93.4889197  85.3843206  73.3429906  89.1044145  86.8226846  61.6297894
  88.7756851  85.9424225  61.4473000  89.4583516  86.7674514  62.5174283
  92.2185968  87.1099816  61.9973372  92.5582041  87.6385737  61.2751980
  92.6658089  87.4480222  62.7731938  94.9129409  85.4936866  71.4476440
  94.5726230  84.6944679  71.8497119  94.2068415  85.7938577  70.8753273
  95.5645881  82.5786179  69.9003763  96.3871950  82.1046657  69.7782653
  95.8083945  83.3576662  70.4002449  94.2054116  85.6074437  60.1966664
  94.9262478  85.9855690  59.6930381  93.5819420  86.3263314  60.3001642
  98.3485238  86.3119586  61.1324997  98.5648853  87.1944224  60.8313825
  97.8679306  85.9205800  60.4030639  93.0884460  89.2705299  67.7095741
  92.9429041  89.5845602  68.6020023  92.6109663  89.8890200  67.1566640
  94.9480843  86.2607847  67.7576631  94.9342411  85.3648941  67.4208929
  95.6653271  86.2678511  68.3914917  96.8006973  86.6945188  69.8029758
  96.5424751  87.6162258  69.8014089  96.2692014  86.2975622  70.4930222
  87.5630122  91.8110644  70.6483402  87.0183590  92.5870452  70.7803677
  88.4409472  92.1581448  70.4902524  94.3517739  85.1422228  63.0264201
  94.4733650  84.2138874  63.2255088  94.0619781  85.1560914  62.1142516
  97.2208929  82.8277138  66.1630921  97.2430626  82.8916471  65.2082900
  97.6376988  81.9881647  66.3571427  88.3496144  90.9380540  73.5413559
  87.6077880  91.0863175  74.1278190  88.0288888  91.1988806  72.6780309
  88.7952758  98.8245969  65.5723954  89.6210777  98.5249741  65.1922597
  88.4446809  98.0553591  66.0213743  93.7634291  98.1772437  67.6421628
  93.1414300  97.5143142  67.3423855  94.4339158  98.2033569  66.9595275
  86.9961363  96.7432295  66.5312888  86.1593271  96.3154470  66.3496889
  86.9685008  96.9364739  67.4683679  93.8358818  86.6554225  77.2354134
  93.8846974  87.5316348  76.8531903  94.3781332  86.1131618  76.6625777
  93.3247798  96.7276360  61.1180088  93.4735918  97.4111825  60.4646761
  94.1314241  96.7081450  61.6329544 101.7315301  90.0318743  75.1447306
 102.6325164  89.8925207  74.8531304 101.8063276  90.1973197  76.0845483
  96.0658107  87.4085597  73.9900492  95.1961416  87.7019163  73.7183081
  96.3017587  87.9926042  74.7107756 104.1916924  91.5917371  72.5410079
 104.6671046  91.7845017  71.7328930 103.2682489  91.6476557  72.2953462
  91.0800431  92.7541538  62.1241157  90.8346472  91.8503868  62.3221367
  91.2496345  92.7558688  61.1820635  98.7697140  83.6265214  71.5065913
  99.2879084  84.3626241  71.1812401  98.4152273  83.9329208  72.3412672
  90.3496078  88.4869895  59.6227318  89.6565323  88.5614250  58.9667354
  90.1047830  87.7230239  60.1448835  99.0209735  80.0465497  67.0266809
  99.3011488  79.3788686  67.6527236  99.8060342  80.2394592  66.5141473
 102.8918593  88.4683131  70.7738384 103.8436016  88.5681228  70.7950608
 102.7222043  87.6761399  71.2836469 100.9132972  85.5538714  70.9597785
 100.3182905  85.8343727  70.2644274 100.6282669  86.0432615  71.7314526
 105.3706671  91.6889251  69.8880684 105.3382991  90.7505251  70.0740368
 105.9807294  91.7673287  69.1546509  97.2090002  90.5585303  55.9307888
  98.1549106  90.4291512  55.9996306  96.8304247  89.8199965  56.4077316
 105.5201159  88.4800294  69.9338967 105.0040208  87.6958751  69.7468896
 106.4041108  88.1519011  70.0985487 103.1811886  82.2241310  65.8934780
 102.9836707  81.9156398  66.7778112 103.7911592  82.9502948  66.0232710
  95.3932919  88.4835280  55.8662773  94.4864374  88.1868393  55.9425487
  95.6708900  88.1865098  54.9997059  86.3110859  89.8041643  66.3161820
  85.9913643  88.9506951  66.0236194  85.7644287  90.0190221  67.0719787
  90.0890767  92.5204084  70.0331326  90.3076776  93.4521192  70.0519360
  90.5016541  92.1612059  70.8186130  97.0094984  83.0272170  62.0207014
  96.1995713  82.6819255  62.3962261  97.6979401  82.7179713  62.6094626
  98.9385533  82.1050216  63.6431311  99.4916571  82.5245670  64.3021334
  99.1755619  81.1785964  63.6854267  94.9618632  88.0937290  79.4234075
  94.8615359  89.0431647  79.3546166  94.7440174  87.7655529  78.5510145
  94.1631703  85.3422215  56.0074752  95.0250867  85.6677113  56.2670570
  94.3482048  84.5553711  55.4947818  86.1799119  93.4244555  68.2854941
  85.4862591  93.0098508  67.7724896  86.9272110  93.4665091  67.6888360
 102.3164340  84.2150742  63.1509975 101.7363009  84.8735546  62.7688028
 102.0500273  83.3928086  62.7397393 100.7667906  83.6155799  65.3531296
 101.2667685  83.7272334  64.5445615 101.4103514  83.3116852  65.9932104
  94.8249902  91.5234429  78.2399137  94.3416984  92.3234789  78.4463026
  94.9110841  91.5342374  77.2866581  88.0935862  93.3562809  66.1620956
  88.0706550  93.4550496  65.2102839  88.4036498  94.2027959  66.4838122
  90.7523240  95.4138964  70.2767570  91.7066493  95.3822906  70.2097502
  90.5535763  94.9529587  71.0917796  91.3422622  93.9840080  72.8438368
  92.1615511  94.4784158  72.8673205  91.6159429  93.0672048  72.8155936
 101.0989218  86.3750832  62.2066324 100.2115073  86.6600483  61.9886518
 101.5143207  86.2144595  61.3593601 104.4503754  86.3997353  65.9220663
 105.2264144  86.8893805  66.1945280 103.7251888  86.8255407  66.3792532
  89.1073468 100.9558583  67.2937768  88.9727936 100.1958984  66.7275766
  88.6905531 101.6799483  66.8266557 101.0730242  91.8905368  62.4216614
 101.0165443  92.3473919  61.5824246 101.6258584  91.1296052  62.2439457
 104.8835048  87.6795100  63.2466733 104.6271982  87.2791735  64.0774941
 104.2587916  88.3938894  63.1216872 101.8065021  93.0810149  59.7169143
 101.7513825  92.9154421  58.7757587 101.1811076  93.7886182  59.8731333
  86.5957536  88.3178213  73.5430565  87.2416400  87.8077167  74.0317790
  86.3874687  89.0546895  74.1173990  95.1161146  82.5818258  59.2954461
  95.1039816  83.5260098  59.4522732  96.0084568  82.3988404  59.0013923
  98.9313266  79.1761035  63.5500398  98.1645662  78.6219521  63.6957081
  99.3423971  79.2482904  64.4114550  90.9355027  85.4645831  77.6405579
  91.7986488  85.1082635  77.8508904  90.3620438  85.1259725  78.3280984
  38.4117400  -6.0678792  51.0971703  37.8482265  -6.1588855  50.3287990
  38.2969795  -6.8878888  51.5774195  35.9581832  -4.5727600  53.9355923
  36.7503124  -4.9136776  53.5202222  36.1978482  -4.4632625  54.8558076
  43.9916959  -2.4007824  46.4086168  43.3404939  -1.8153744  46.0220181
  44.7861322  -1.8701629  46.4681205  37.9172586  -5.3118687  46.8073302
  38.6903462  -5.8589700  46.6686178  38.2697985  -4.4474438  47.0187763
  39.7557629  -3.9842305  60.0140201  39.4647495  -3.0796674  59.8986868
  40.3914613  -3.9425777  60.7284271  40.6813835  -6.6065456  56.6041561
  41.2777408  -6.8309434  55.8898524  40.7388807  -7.3480711  57.2067009
  45.4692224  -4.7117392  46.9455152  44.8338057  -4.6382766  47.6576057
  45.1389630  -4.1223794  46.2674231  44.7147514  -4.2980889  57.0089995
  44.4148237  -3.3955851  56.9005802  44.3698573  -4.5648706  57.8611148
  38.1659995  -7.8467093  53.0426699  37.2410492  -7.9790878  53.2504391
  38.4144408  -7.0672873  53.5396642  35.5268806  -8.2033819  53.8770488
  35.6561187  -7.9499340  54.7909900  34.8466257  -7.6106111  53.5575144
  39.6968293   2.4663431  49.9760963  39.6192323   3.4171256  50.0549443
  39.0929937   2.1209303  50.6335889  46.2416050  -4.8492919  54.5464747
  45.6124912  -4.6847205  53.8440815  45.8541712  -4.4351310  55.3175711
  50.1205282  -3.9138481  51.9009111  49.4356320  -3.5339580  51.3506144
  50.2049131  -3.3043155  52.6341058  41.7944012  -5.1118511  51.8114832
  42.2582357  -4.8330808  51.0219455  41.5300810  -6.0135067  51.6287923
  38.6868093  -5.5647030  54.7494595  39.2569450  -5.1359761  54.1112080
  39.2776205  -5.8464445  55.4478781  48.4902041  -3.3906567  56.6726812
  49.3119485  -3.7926380  56.3909493  48.4864444  -3.4938333  57.6242927
  42.2558645  -3.8422524  58.8287522  42.3203077  -3.3802116  59.6645694
  41.5469569  -4.4725159  58.9569832  41.9706662  -2.1754416  48.6966502
  41.8352337  -1.3302880  49.1251350  42.5116475  -1.9735138  47.9332436
  35.4236060  -4.6578978  49.2694427  35.9360580  -3.8635728  49.4199992
  36.0758773  -5.3552688  49.2028029  37.2330944  -1.5413222  51.3517181
  37.4097573  -0.6195257  51.1638165  38.0287778  -1.8554803  51.7811560
  43.5975139  -1.5530850  62.8266844  43.1538993  -2.3394471  62.5087749
  44.2592352  -1.3651699  62.1610735  38.3562260  -0.0235048  57.3527523
  38.9069685  -0.1517985  56.5804517  37.5173736   0.2759841  57.0022416
  45.6956377  -1.2728050  60.8548246  45.6774852  -0.4519169  60.3628515
  46.6176297  -1.3973974  61.0798387  42.1529431  -3.7583920  61.6971754
  42.6857768  -4.5195632  61.4671062  41.6243512  -4.0510268  62.4395909
  33.3884977  -6.3290324  50.0453998  34.2260199  -5.9193315  49.8287706
  33.5663244  -7.2690882  50.0154192  43.5182144  -4.6297928  49.2090566
  42.9903505  -5.3645168  48.8963804  43.0169646  -3.8523251  48.9630534
  44.5702823   1.8979790  45.1322225  43.8964522   2.2011487  45.7407183
  44.9568645   2.7008870  44.7827682  48.0742245  -3.0998533  50.5040697
  47.6204572  -3.9407623  50.5605887  47.4436211  -2.4637135  50.8415477
  46.5175184  -1.2622036  51.4390515  46.8098158  -0.7016979  50.7202881
  47.0273805  -0.9693475  52.1943674  42.5399065  -5.1696379  44.0737608
  42.1018495  -5.8860520  43.6143245  43.2809506  -4.9420264  43.5122699
  41.4808809  -0.4841685  52.5283968  41.4384988  -0.2580839  51.5992500
  42.3971508  -0.7178311  52.6769769  39.5974610  -3.6078656  52.3245931
  40.3915208  -4.1028336  52.1228506  38.8866302  -4.1360793  51.9613636
  44.4169454  -1.2260561  56.6758298  44.4706477  -0.6569624  57.4436014
  43.5484236  -1.0558676  56.3112336  46.6072218  -4.6332211  63.2498964
  46.4557724  -4.8621660  62.3329048  46.5976897  -3.6761610  63.2630309
  42.1745886  -3.0349634  56.0043768  42.0356972  -3.4030850  56.8769706
  41.3860482  -2.5201995  55.8327726  42.7694038   2.0659462  47.3469304
  42.9445794   1.5947505  48.1614927  42.0826826   2.6925228  47.5750565
  43.7251101  -3.6568032  53.3932606  43.3900934  -3.6967262  54.2890256
  43.2255047  -4.3223316  52.9203016  48.3164424  -1.6013089  61.3275446
  48.2576971  -2.2853869  60.6606029  48.7183943  -0.8594099  60.8756072
  37.3355123   5.2148825  54.1209165  37.5751721   5.8467349  54.7988183
  36.4924320   4.8636865  54.4074524  48.3181832  -3.6373505  59.5589425
  47.4308610  -3.9747583  59.6815824  48.8880383  -4.3690474  59.7958191
  41.8482985   1.0227947  56.5250669  41.7753157   1.8282919  57.0369973
  41.4060378   1.2219913  55.6998690  41.6372765   0.2599717  50.0353490
  40.8540287   0.8021398  50.1291715  42.3365510   0.7773697  50.4347731
  44.3081669   0.9214781  58.6808827  45.0209641   1.5562246  58.6084729
  43.8171697   1.0178647  57.8648829  39.3593582  -1.3290775  59.5014398
  40.0603042  -0.6954292  59.6543792  38.8888697  -0.9876044  58.7410037
  47.4847978  -2.9872825  47.7862305  47.7607822  -3.1016231  48.6956179
  46.6152477  -3.3855340  47.7474478  44.1202042   1.2613526  51.4295119
  44.3024436   0.4435181  51.8922871  44.9435028   1.4781218  50.9920009
  44.4544207   0.1881711  48.6910167  44.9831974  -0.3225835  48.0780329
  44.7172427  -0.1275759  49.5555700  34.9561300  -1.7954420  56.4345501
  35.5414737  -2.5410732  56.5673405  34.7586139  -1.4850463  57.3182165
  37.8099955   1.2396827  51.4507943  37.1410331   1.7242955  50.9671983
  37.6712825   1.4866048  52.3651322  41.9505224   3.2740571  58.0490602
  42.5023532   3.4372192  58.8139687  42.2911417   3.8645009  57.3770626
  46.8016098  -1.8998172  63.9039256  47.3456002  -1.2868213  63.4094211
  46.2202943  -1.3418593  64.4206269  45.0873611   1.2222546  55.0354284
  44.9624751   0.4212286  54.5265229  45.7452702   1.7168740  54.5468254
  47.1508520  -0.9768434  56.6633834  46.2038855  -1.0963082  56.5912161
  47.4991293  -1.8645936  56.7460095  44.1554953  -1.1815717  52.8638186
  44.0079915  -2.1099010  53.0445756  44.9808446  -1.1595627  52.3795261
  47.7589075  -0.3587159  53.9503059  48.6835622  -0.5644297  53.8127510
  47.5904378  -0.6070757  54.8592400  47.5484391   0.1598509  49.3065150
  47.7221269  -0.4055069  48.5539003  48.0413282   0.9599404  49.1244640
  48.5359563  -0.5234727  46.4062049  49.2310468   0.0971966  46.6249363
  48.8782714  -1.3739376  46.6814426  50.4350987  -3.0735021  47.9349379
  50.9602311  -2.7347748  47.2098699  50.3473339  -4.0088006  47.7512514
  42.0971035   0.8399052  60.0639256  42.4058162   0.5948199  60.9361956
  42.8946517   1.0445691  59.5758126  42.1191647   2.9936962  52.2944632
  41.6796638   2.5013341  52.9877489  42.8699764   2.4509930  52.0536708
  34.5983986  -0.8151497  52.2969261  35.4242006  -1.1147725  51.9167904
  34.2478038  -1.5843875  52.7459049  39.5665519  -1.4625029  54.3666934
  38.9445529  -2.1254324  54.0669162  40.2370386  -1.4363897  53.6840582
  32.7992591  -2.8965171  53.2558194  31.9624500  -3.3242996  53.0742195
  32.7716237  -2.7032727  54.1928985  50.1244893  -2.4402118  63.2400577
  49.3340436  -2.4577979  62.7005077  49.8878247  -1.9013824  63.9949614
  39.1279026  -2.9121106  47.8425395  39.2767147  -2.2285641  47.1892067
  39.9345470  -2.9316015  48.3574850  36.8831659  -6.8855928  48.8486464
  36.6377701  -7.7893598  49.0466674  37.0527574  -6.8838777  47.9065942
  42.6274432  -0.4172975  45.3137142  42.0548399   0.2017212  44.8607614
  43.2007226   0.1326387  45.8477064  45.8471692  -0.1335825  46.4445724
  46.7802365  -0.1990263  46.6478600  45.7594905   0.7020442  45.9860257
  48.4759708  -0.8169955  43.4049672  48.3973340  -1.1510091  44.2985430
  49.2969375  -0.3248187  43.4041144  42.8959923  -5.0294416  64.1153852
  43.8162932  -4.8515817  64.3093898  42.8609506  -5.9738371  63.9633551
  35.8921995  -7.1193382  56.7576633  36.1108005  -6.1876274  56.7764667
  36.3047769  -7.4785407  57.5431437  33.8967090  -6.2834657  52.8866263
  33.8737779  -6.1846970  51.9348146  34.2067727  -5.4369506  53.2083429
  36.5554468  -4.2258502  57.0012877  37.5097722  -4.2574560  56.9342809
  36.3566992  -4.6867878  57.8163103  37.1453850  -5.6557386  59.5683675
  37.9646739  -5.1613307  59.5918512  37.4190658  -6.5725418  59.5401242
  34.9104697   1.3161117  54.0183075  34.7759165   0.5561518  53.4521073
  34.4936759   2.0402017  53.5511864  46.0463660  -3.5001959  43.0259650
  46.7499510  -3.2951957  43.6417306  45.3226309  -2.9325197  43.2908734
  38.0673823   2.2130434  54.2301518  37.9506207   3.1575867  54.1280208
  37.2466269   1.9103996  54.6187317  47.9550358  -3.0619430  45.0758110
  48.7895961  -3.4938232  44.8935585  47.7934700  -3.2337416  46.0035005
  44.9242157  -4.2538405  65.7668012  45.7933317  -4.0797753  65.4054647
  44.4448908  -3.4343988  65.6443742  39.0928337   2.8658696  57.4457446
  39.9955584   2.8982306  57.7623941  38.8665707   1.9359147  57.4603782
  40.8481939   1.6189683  54.1067525  39.8977570   1.6191544  53.9931897
  41.1514425   0.8722417  53.5903559  56.5834633   7.4550221  55.1713287
  57.2213043   7.3356968  54.4676627  56.4655476   8.4031065  55.2301239
  53.3924339   7.4077649  55.1074812  53.0542850   7.2918714  54.2195347
  54.2614107   7.0068814  55.0875818  49.2511155   9.2613126  51.0971703
  48.6876020   9.1703063  50.3287990  49.1363550   8.4413030  51.5774195
  53.8744122   8.5612501  61.0661017  53.8632763   8.1665299  60.1941521
  54.0364761   7.8278574  61.6594789  46.7975587  10.7564317  53.9355923
  47.5896878  10.4155142  53.5202222  47.0372237  10.8659292  54.8558076
  54.8310713  12.9284093  46.4086168  54.1798693  13.5138174  46.0220181
  55.6255076  13.4590288  46.4681205  48.7566340  10.0173230  46.8073302
  49.5297216   9.4702218  46.6686178  49.1091739  10.8817480  47.0187763
  50.5951383  11.3449613  60.0140201  50.3041249  12.2495244  59.8986868
  51.2308367  11.3866140  60.7284271  51.5207590   8.7226461  56.6041561
  52.1171162   8.4982484  55.8898524  51.5782561   7.9811207  57.2067009
  51.0932618   6.1765897  44.4391752  51.3458139   5.6547418  43.6775215
  50.1557177   6.0132042  44.5418435  56.1375901   5.1801675  52.2466495
  56.9238990   4.7621098  51.8956912  56.4014605   6.0847767  52.4148144
  56.3085978  10.6174525  46.9455152  55.6731811  10.6909152  47.6576057
  55.9783385  11.2068124  46.2674231  61.5384328   5.1176908  53.1499474
  62.2709500   4.5476125  53.3837303  60.7823684   4.7298509  53.5905979
  50.8128907   8.0794003  46.6416127  50.6965165   7.4038906  47.3097211
  50.9231167   7.5926376  45.8248280  53.1560448   7.5404150  50.3462816
  52.7918655   7.0134771  51.0575738  54.0127564   7.1502619  50.1729301
  52.7965935   2.5694049  45.3424165  52.9640337   3.4374286  45.7094636
  52.6063104   2.7321331  44.4185454  55.5541268  11.0311028  57.0089995
  55.2541991  11.9336067  56.9005802  55.2092328  10.7643211  57.8611148
  49.0053750   7.4824825  53.0426699  48.0804246   7.3501039  53.2504391
  49.2538163   8.2619044  53.5396642  58.9538412   3.5493568  54.6887432
  58.0455289   3.4808977  54.3946193  58.9026008   4.0265513  55.5169258
  52.7755156   5.0251707  46.3270831  52.6554781   5.4708758  47.1656312
  52.0807744   5.3737025  45.7684370  46.3662561   7.1258099  53.8770488
  46.4954942   7.3792578  54.7909900  45.6860012   7.7185807  53.5575144
  50.5362048  17.7955349  49.9760963  50.4586078  18.7463174  50.0549443
  49.9323692  17.4501221  50.6335889  53.0279278   4.9683214  62.6322330
  52.2512612   5.5277134  62.6225194  53.6669841   5.4539997  63.1537200
  60.8200058   1.7510007  56.4665306  60.1774439   2.0442540  55.8205101
  60.3154987   1.6362927  57.2718503  58.4740222   5.4973180  47.1551165
  59.3858078   5.7300567  46.9798863  57.9649869   6.0810224  46.5926244
  51.2825650   7.7768667  62.1940297  52.0240334   8.3153711  61.9175120
  50.5762635   8.4034956  62.3511848  56.7580990   9.9197808  60.7912458
  57.1664346   9.4780218  60.0467090  56.0358251   9.3450435  61.0446651
  53.1112060   4.8570415  58.1646015  53.9573255   5.2809828  58.3080664
  53.0510697   4.2004039  58.8584578  57.0809804  10.4798998  54.5464747
  56.4518667  10.6444713  53.8440815  56.6935466  10.8940608  55.3175711
  60.9599036  11.4153436  51.9009111  60.2750074  11.7952338  51.3506144
  61.0442886  12.0248763  52.6341058  56.2611505   2.5174783  59.8227189
  56.0172437   3.2716844  59.2861464  56.5371436   2.8960131  60.6574436
  58.2149968   9.0613395  58.5004454  58.4266863   9.7045155  57.8238835
  58.1679716   8.2275712  58.0326384  55.8176197   1.6731216  55.4041026
  54.9560676   1.9712470  55.6957764  55.8438631   1.8901615  54.4722059
  52.6337766  10.2173407  51.8114832  53.0976112  10.4961110  51.0219455
  52.3694564   9.3156851  51.6287923  49.5261847   9.7644888  54.7494595
  50.0963204  10.1932156  54.1112080  50.1169959   9.4827473  55.4478781
  51.5706652   6.3396559  48.6204397  52.2730696   6.7917603  49.0878324
  51.2387281   5.6980378  49.2484290  50.0187014   4.9308316  62.9955607
  49.3885674   5.6124596  63.2291003  49.9123102   4.8191397  62.0508745
  45.3131986   4.5980112  53.9221531  44.5231040   4.8537640  53.4461641
  45.8043234   5.4128449  54.0273571  59.3295796  11.9385351  56.6726812
  60.1513239  11.5365538  56.3909493  59.3258199  11.8353585  57.6242927
  47.2646732   4.9624691  50.8805007  46.4677895   5.0743385  51.3988503
  47.0372324   5.3011343  50.0145898  53.0952399  11.4869394  58.8287522
  53.1596832  11.9489801  59.6645694  52.3863323  10.8566759  58.9569832
  43.5969689   4.8510602  56.3536522  43.8477728   5.7357612  56.6194097
  44.1329238   4.6715204  55.5811613  67.4201789   8.2824099  53.0211783
  66.6665497   7.7131497  52.8655787  67.5549330   8.2486764  53.9682418
  52.8100417  13.1537502  48.6966502  52.6746092  13.9989037  49.1251350
  53.3510229  13.3556779  47.9332436  49.2967756  -0.7670919  65.3580858
  48.9034702  -1.3204720  66.0328502  50.1133897  -0.4560340  65.7487375
  46.2629814  10.6712940  49.2694427  46.7754335  11.4656190  49.4199992
  46.9152527   9.9739230  49.2028029  48.0724699  13.7878696  51.3517181
  48.2491327  14.7096661  51.1638165  48.8681532  13.4737115  51.7811560
  52.2135717   0.6486961  62.9501114  52.9545431   1.2494114  62.8705577
  52.4453640  -0.0935402  62.3919157  47.3577055   5.8343328  61.2279344
  47.2430571   4.9328585  61.5286443  46.5021573   6.0807025  60.8764160
  54.4368893  13.7761068  62.8266844  53.9932747  12.9897447  62.5087749
  55.0986107  13.9640219  62.1610735  49.1956014  15.3056870  57.3527523
  49.7463440  15.1773933  56.5804517  48.3567490  15.6051759  57.0022416
  56.5350131  14.0563868  60.8548246  56.5168607  14.8772749  60.3628515
  57.4570051  13.9317943  61.0798387  52.9923185  11.5707998  61.6971754
  53.5251522  10.8096286  61.4671062  52.4637267  11.2781649  62.4395909
  44.2278731   9.0001594  50.0453998  45.0653953   9.4098602  49.8287706
  44.4056999   8.0601036  50.0154192  56.1243163   6.6676675  45.7337831
  55.6089787   7.4381279  45.9726218  55.8520472   5.9941811  46.3570892
  53.7090274   1.5126375  50.7923069  52.8531871   1.1233226  50.6128708
  54.1217226   1.5918336  49.9322855  55.2389421  -0.9527281  55.1914629
  54.7354216  -0.9897146  54.3782434  55.5320028  -0.0434539  55.2511286
  51.4832307  -0.8688552  54.1980811  52.3485303  -1.0645743  53.8386700
  51.5509816  -1.0978200  55.1250168  61.0977437   9.4209029  47.6691004
  60.3206880   9.0820189  47.2246167  61.7768918   9.4261652  46.9945969
  55.9129466   4.5403767  47.5597612  55.6079602   4.8549916  48.4107755
  56.8659908   4.6185187  47.6024945  54.3575898  10.6993990  49.2090566
  53.8297260   9.9646750  48.8963804  53.8563401  11.4768666  48.9630534
  59.3368744   8.8943010  54.3257612  58.6792419   9.5842272  54.4137741
  60.1409143   9.2839442  54.6691599  49.0894626   1.3613656  51.5697178
  49.6638378   1.1388838  50.8370371  49.6765608   1.4302351  52.3225779
  58.1474203   7.2487383  52.3761554  58.6606085   7.8817375  52.8783264
  58.7975427   6.6488579  52.0104914  49.4164213   3.3918117  45.5893063
  48.5801525   3.7292804  45.9102338  49.2768983   3.2567097  44.6520200
  51.3917293  -1.7645095  50.2972247  50.7381706  -2.0796078  49.6728862
  51.3497768  -2.3869354  51.0232070  52.5028498   8.5174200  42.2125539
  51.5955560   8.2863454  42.4116688  52.9999530   7.7211819  42.3999521
  55.4096577  17.2271707  45.1322225  54.7358276  17.5303404  45.7407183
  55.7962399  18.0300788  44.7827682  54.6255034   4.7236839  54.6219895
  53.7077595   4.9451786  54.4641583  55.0415177   4.7983149  53.7631602
  55.4090082   6.1228254  49.7522575  56.1561901   6.6349652  49.4429697
  55.6781671   5.8012307  50.6126969  53.6816732   8.6186795  46.7349529
  52.7727951   8.3345828  46.8321999  53.7111816   9.0385874  45.8752836
  58.9135999  12.2293385  50.5040697  58.4598326  11.3884294  50.5605887
  58.2829966  12.8654783  50.8415477  57.8568919   3.1585371  51.7341364
  57.1191676   2.6462757  52.0651607  58.1095692   2.7185752  50.9224641
  57.3568938  14.0669881  51.4390515  57.6491913  14.6274938  50.7202881
  57.8667559  14.3598442  52.1943674  44.2504902   6.3392309  50.7164731
  44.0529302   5.7461670  49.9915798  43.6951566   6.0344519  51.4340670
  52.2301626   6.2315416  52.8359325  52.2850236   5.2789252  52.7601801
  51.4192828   6.3874855  53.3200623  53.3792820  10.1595539  44.0737608
  52.9412250   9.4431398  43.6143245  54.1203260  10.3871654  43.5122699
  50.1693986   4.8492475  50.5949703  49.3561851   5.1486646  51.0014896
  50.6652980   4.4548164  51.3124186  52.3202564  14.8450232  52.5283968
  52.2778742  15.0711079  51.5992500  53.2365262  14.6113607  52.6769769
  55.7668197   5.3134300  59.4264597  56.1217585   5.5405773  60.2859063
  56.4140329   5.6452677  58.8041853  61.4965934   8.4352736  50.1313926
  61.3583833   8.6254332  49.2035116  61.1402153   9.1972119  50.5881978
  49.6608061   2.4210831  56.2110938  50.3007440   2.2799590  55.5133902
  48.8285591   2.1345344  55.8349540  61.5235314  10.5029263  55.1425198
  61.9571821  10.4104552  55.9908252  62.2366895  10.4786763  54.5045214
  50.4368364  11.7213261  52.3245931  51.2308963  11.2263582  52.1228506
  49.7260057  11.1931125  51.9613636  55.2563209  14.1031357  56.6758298
  55.3100231  14.6722293  57.4436014  54.3877990  14.2733242  56.3112336
  46.7451128   5.8656343  48.4005684  45.8148716   5.8040799  48.6175646
  46.8408600   5.3432296  47.6042325  46.6636677   2.3911156  50.9883925
  46.9243494   3.3056489  50.8793086  47.4853849   1.9235599  51.1380538
  48.1361602   3.8048913  58.1582750  48.8084656   3.5966275  57.5095399
  47.3091389   3.6070999  57.7187982  62.3850864  10.5452963  57.6758083
  62.5786754  11.4498774  57.9217358  62.2851482  10.0860383  58.5096668
  54.0387174   0.4310854  60.1748411  53.3915089   1.1300804  60.0812887
  54.8088190   0.8646998  60.5424659  57.4465972  10.6959706  63.2498964
  57.2951479  10.4670258  62.3329048  57.4370652  11.6530308  63.2630309
  54.2151309   8.2691619  58.2345230  55.1443369   8.4202779  58.0614198
  53.7942339   8.3575640  57.3793877  53.0139640  12.2942283  56.0043768
  52.8750726  11.9261068  56.8769706  52.2254237  12.8089923  55.8327726
  53.6087792  17.3951380  47.3469304  53.7839548  16.9239423  48.1614927
  52.9220580  18.0217146  47.5750565  54.5644856  11.6723886  53.3932606
  54.2294688  11.6324656  54.2890256  54.0648801  11.0068602  52.9203016
  48.5389100   7.0791516  58.9185187  48.4008897   6.3471755  59.5196726
  49.4494023   6.9900416  58.6369375  57.5004047   9.0179920  43.6669665
  56.8833218   8.2926749  43.5702718  57.0320536   9.7789281  43.3236740
  51.1671400   6.7911475  58.4068867  51.8771019   6.1504668  58.3655485
  51.1240708   7.0424370  59.3295047  59.1558179  13.7278829  61.3275446
  59.0970725  13.0438049  60.6606029  59.5577697  14.4697819  60.8756072
  49.8800334   3.7776693  60.2264506  49.3437691   3.3267432  60.8786102
  49.2917043   3.9122602  59.4834970  48.1748878  20.5440743  54.1209165
  48.4145476  21.1759267  54.7988183  47.3318074  20.1928783  54.4074524
  49.2902593   3.2365345  42.7890970  48.4132059   3.1154146  42.4253216
  49.7660346   2.4451423  42.5369858  59.1575586  11.6918413  59.5589425
  58.2702365  11.3544334  59.6815824  59.7274137  10.9601444  59.7958191
  40.8104733   8.0242504  52.8832477  41.4975773   7.7104234  52.2953492
  40.6552862   8.9283869  52.6099728  45.6139455   2.9132701  57.3117501
  45.5297644   2.3058371  56.5767910  44.7922162   3.4041719  57.3126997
  52.6876740  16.3519865  56.5250669  52.6146911  17.1574837  57.0369973
  52.2454133  16.5511831  55.6998690  52.4766519  15.5891635  50.0353490
  51.6934041  16.1313315  50.1291715  53.1759264  16.1065615  50.4347731
  55.7863169   1.3986265  52.6787696  56.2831869   0.6456227  52.3588766
  55.0150151   1.4350581  52.1130905  63.6392927   7.1026630  54.3205987
  63.6282803   7.9851346  53.9499920  62.7710306   6.7498181  54.1260524
  55.1475423  16.2506699  58.6808827  55.8603395  16.8854164  58.6084729
  54.6565452  16.3470565  57.8648829  56.8692950  10.1557952  50.2526119
  55.9349229  10.2759414  50.0830823  57.0469618   9.2530419  49.9886129
  52.3698138   3.5403648  52.4059380  51.9995926   2.9874688  53.0940286
  52.8657230   2.9361781  51.8534380  60.2565501   5.9975271  50.7876153
  60.7225954   6.8303263  50.7136456  60.7073002   5.5320253  51.4921412
  50.1987337  14.0001143  59.5014398  50.8996796  14.6337626  59.6543792
  49.7282452  14.3415874  58.7410037  58.3241732  12.3419092  47.7862305
  58.6001576  12.2275687  48.6956179  57.4546231  11.9436577  47.7474478
  57.9988623   6.5545750  57.3266948  57.3460073   6.8021657  56.6719401
  58.3769002   5.7409888  56.9929426  54.9595796  16.5905443  51.4295119
  55.1418191  15.7727099  51.8922871  55.7828782  16.8073135  50.9920009
  55.2937962  15.5173628  48.6910167  55.8225728  15.0066083  48.0780329
  55.5566182  15.2016159  49.5555700  54.0476196   7.2965561  63.8132986
  53.3716833   7.1959690  64.4835361  54.8703829   7.1404775  64.2768983
  45.7955055  13.5337498  56.4345501  46.3808491  12.7881186  56.5673405
  45.5979893  13.8441454  57.3182165  48.6493710  16.5688745  51.4507943
  47.9804085  17.0534873  50.9671983  48.5106580  16.8157965  52.3651322
  40.3872709   6.1043098  55.1549944  40.4256809   5.5706689  55.9487062
  39.8813002   5.5778303  54.5360921  52.7898978  18.6032489  58.0490602
  53.3417286  18.7664110  58.8139687  53.1305172  19.1936926  57.3770626
  47.7663472   0.9507638  58.6512486  47.8304798   1.8122469  58.2389884
  47.7030592   0.3381640  57.9184845  47.2415744   3.0230771  62.2985521
  47.8687783   2.6407848  62.9123045  46.3843663   2.8044973  62.6641213
  57.6409853  13.4293746  63.9039256  58.1849757  14.0423704  63.4094211
  57.0596698  13.9873324  64.4206269  44.0181287   4.8307200  48.2303875
  44.3134728   3.9217878  48.1770929  43.1169323   4.8094939  47.9084878
  55.9267366  16.5514464  55.0354284  55.8018505  15.7504204  54.5265229
  56.5846457  17.0460657  54.5468254  47.5475534   2.9063197  54.2131424
  46.8262120   3.5199164  54.0738897  48.3368790   3.4420961  54.1348070
  57.9902274  14.3523484  56.6633834  57.0432610  14.2328835  56.5912161
  58.3385047  13.4645982  56.7460095  50.3501847   0.2417623  60.4872076
  50.8736249   0.4879920  61.2498385  50.1314181   1.0737658  60.0675213
  45.7469129   2.5121298  48.3543201  45.4181835   1.6318677  48.1718306
  46.1008499   2.4568966  49.2419590  54.9948707  14.1476200  52.8638186
  54.8473670  13.2192908  53.0445756  55.8202201  14.1696291  52.3795261
  48.8610952   2.7994267  48.7218678  49.2007024   3.3280189  47.9997287
  49.3083072   3.1374674  49.4977245  58.5982829  14.9704759  53.9503059
  59.5229377  14.7647620  53.8127510  58.4298133  14.7221160  54.8592400
  51.5554393   1.1831318  58.1721746  51.2151213   0.3839131  58.5742426
  50.8493399   1.4833029  57.5998579  52.2070864  -1.7319369  56.6249069
  53.0296934  -2.2058891  56.5027960  52.4508928  -0.9528886  57.1247756
  50.8479099   1.2968889  46.9211971  51.5687461   1.6750142  46.4175688
  50.2244403   2.0157766  47.0246949  54.9910222   2.0014038  47.8570303
  55.2073836   2.8838676  47.5559131  54.5104289   1.6100251  47.1275945
  49.7309443   4.9599751  54.4341048  49.5854024   5.2740054  55.3265329
  49.2534647   5.5784652  53.8811947  51.5905826   1.9502299  54.4821937
  51.5767395   1.0543393  54.1454235  52.3078254   1.9572963  55.1160223
  53.4431957   2.3839639  56.5275065  53.1849735   3.3056710  56.5259395
  52.9116997   1.9870074  57.2175529  58.3878145  15.4890427  49.3065150
  58.5615023  14.9236849  48.5539003  58.8807037  16.2891321  49.1244640
  44.2055105   7.5005096  57.3728709  43.6608573   8.2764904  57.5048983
  45.0834455   7.8475900  57.2147830  50.9942722   0.8316679  49.7509508
  51.1158633  -0.0966674  49.9500395  50.7044764   0.8455365  48.8387823
  53.8633912  -1.4828410  52.8876227  53.8855609  -1.4189077  51.9328207
  54.2801971  -2.3223901  53.0816734  64.2417537   8.2526849  50.9255450
  64.6848683   7.5034175  50.5274573  63.3644047   8.2436986  50.5429182
  59.3753318  14.8057191  46.4062049  60.0704223  15.4263884  46.6249363
  59.7176468  13.9552542  46.6814426  44.9921127   6.6274992  60.2658866
  44.2502863   6.7757627  60.8523496  44.6713871   6.8883257  59.4025615
  61.2744741  12.2556896  47.9349379  61.7996065  12.5944169  47.2098699
  61.1867094  11.3203912  47.7512514  52.9364790  16.1690970  60.0639256
  53.2451916  15.9240117  60.9361956  53.7340272  16.3737609  59.5758126
  52.9585402  18.3228880  52.2944632  52.5190392  17.8305258  52.9877489
  53.7093519  17.7801847  52.0536708  45.4377741  14.5140421  52.2969261
  46.2635761  14.2144192  51.9167904  45.0871793  13.7448043  52.7459049
  50.4059274  13.8666889  54.3666934  49.7839283  13.2037594  54.0669162
  51.0764141  13.8928021  53.6840582  43.6386346  12.4326747  53.2558194
  42.8018254  12.0048921  53.0742195  43.6109991  12.6259190  54.1928985
  50.4783801   2.3448677  63.9599440  50.5271957   3.2210800  63.5777210
  51.0206316   1.8026070  63.3871083  60.9638647  12.8889800  63.2400577
  60.1734191  12.8713939  62.7005077  60.7272002  13.4278094  63.9949614
  61.0836522   9.7382266  60.5533306  61.1334527   9.5732274  61.4948829
  60.9750446   8.8709525  60.1631187  49.9672781  12.4170812  47.8425395
  50.1160901  13.1006277  47.1892067  50.7739224  12.3975902  48.3574850
  58.3740285   5.7213194  61.8692612  59.2750147   5.5819659  61.5776610
  58.4488259   5.8867649  62.8090790  52.7083090   3.0980049  60.7145799
  51.8386399   3.3913615  60.4428387  52.9442570   3.6820494  61.4353062
  62.5854719  12.1579208  60.7975327  62.2939527  12.5209189  61.6338788
  61.9726850  11.4446216  60.6188659  63.7850401   9.7232088  53.3177898
  64.6197293  10.1621892  53.4815458  63.9209530   9.2470741  52.4986143
  60.8341907   7.2811823  59.2655385  61.3096029   7.4739469  58.4574237
  59.9107473   7.3371008  59.0198769  47.7225414   8.4435990  48.8486464
  47.4771456   7.5398320  49.0466674  47.8921328   8.4453140  47.9065942
  55.4122124  -0.6840334  58.2311219  55.9304068   0.0520693  57.9057708
  55.0577257  -0.3776341  59.0657978  46.9921061   4.1764347  46.3472625
  46.2990306   4.2508702  45.6912661  46.7472813   3.4124691  46.8694142
  53.4668186  14.9118943  45.3137142  52.8942153  15.5309130  44.8607614
  54.0400980  15.4618304  45.8477064  59.5343576   4.1577583  57.4983691
  60.4860999   4.2575680  57.5195915  59.3647027   3.3655851  58.0081775
  57.5557956   1.2433166  57.6843092  56.9607888   1.5238179  56.9889580
  57.2707652   1.7327067  58.4559833  56.6865446  15.1956093  46.4445724
  57.6196119  15.1301654  46.6478600  56.5988659  16.0312360  45.9860257
  59.3153463  14.5121963  43.4049672  59.2367094  14.1781827  44.2985430
  60.1363130  15.0043731  43.4041144  62.0131654   7.3783702  56.6125991
  61.9807974   6.4399703  56.7985674  62.6232278   7.4567739  55.8791815
  53.8514985   6.2479755  42.6553195  54.7974090   6.1185963  42.7241613
  53.4729230   5.5094417  43.1322623  62.1626143   4.1694746  56.6584274
  61.6465191   3.3853202  56.4714203  63.0466091   3.8413462  56.8230793
  67.8308204   8.4399709  55.7532027  68.5611592   8.1784997  56.3139731
  67.2215149   7.7028431  55.7934095  65.9123501   6.5807572  56.3506479
  65.1856665   6.4463537  55.7422970  65.4970788   6.8884400  57.1563197
  53.7353677  10.2997501  64.1153852  54.6556687  10.4776100  64.3093898
  53.7003260   9.3553547  63.9633551  52.0357902   4.1729732  42.5908080
  51.1289357   3.8762844  42.6670793  52.3133883   3.8759550  41.7242366
  42.9535842   5.4936095  53.0407126  42.6338627   4.6401403  52.7481500
  42.4069271   5.7084673  53.7965094  46.7315750   8.2098536  56.7576633
  46.9501760   9.1415644  56.7764667  47.1441524   7.8506511  57.5431437
  53.6519968  -1.2833379  48.7452321  52.8420696  -1.6286294  49.1207567
  54.3404385  -1.5925835  49.3339933  51.6043615   3.7831742  66.1479382
  51.5040342   4.7326099  66.0791473  51.3865157   3.4549981  65.2755452
  50.8056687   1.0316667  42.7320059  51.6675851   1.3571565  42.9915876
  50.9907031   0.2448163  42.2193125  42.8224102   9.1139007  55.0100248
  42.1287574   8.6992959  54.4970202  43.5697093   9.1559543  54.4133667
  58.9589323  -0.0954807  49.8755282  58.3787992   0.5629997  49.4933334
  58.6925256  -0.9177462  49.4642700  57.4092890  -0.6949749  52.0776602
  57.9092668  -0.5833214  51.2690921  58.0528497  -0.9988696  52.7177411
  51.4674885   7.2128881  64.9644443  50.9841967   8.0129241  65.1708332
  51.5535824   7.2236826  64.0111887  44.7360845   9.0457260  52.8866263
  44.7131533   9.1444948  51.9348146  45.0461481   9.8922411  53.2083429
  47.3948223  11.1033415  57.0012877  48.3491476  11.0717358  56.9342809
  47.1960746  10.6424039  57.8163103  47.9847605   9.6734532  59.5683675
  48.8040494  10.1678610  59.5918512  48.2584413   8.7566500  59.5401242
  57.7414201   2.0645284  48.9311630  56.8540056   2.3494934  48.7131825
  58.1568190   1.9039047  48.0838907  61.0928737   2.0891805  52.6465970
  61.8689127   2.5788257  52.9190586  60.3676871   2.5149859  53.1037839
  63.5301296   2.8019424  53.7039910  64.1245787   2.5615160  52.9933218
  63.6027880   2.0826555  54.3313446  45.7498452  16.6453035  54.0183075
  45.6152920  15.8853436  53.4521073  45.3330514  17.3693935  53.5511864
  56.8857415  11.8289958  43.0259650  57.5893265  12.0339961  43.6417306
  56.1620063  12.3966720  43.2908734  57.7155225   7.5799820  49.1461920
  57.6590426   8.0368371  48.3069553  58.2683567   6.8190504  48.9684763
  61.5260031   3.3689552  49.9712040  61.2696965   2.9686187  50.8020248
  60.9012899   4.0833346  49.8462179  65.8372369   6.1085625  52.4783331
  65.2771927   6.1778814  53.2514893  65.2315872   5.9326609  51.7582828
  48.9067578  17.5422352  54.2301518  48.7899962  18.4867784  54.1280208
  48.0860024  17.2395914  54.6187317  58.7944112  12.2672488  45.0758110
  59.6289716  11.8353686  44.8935585  58.6328455  12.0954501  46.0035005
  58.4490004   8.7704601  46.4414450  58.3938808   8.6048872  45.5002894
  57.8236060   9.4780634  46.5976639  43.2382519   4.0072665  60.2675872
  43.8841383   3.4971619  60.7563097  43.0299670   4.7441347  60.8419297
  55.7635911  11.0753513  65.7668012  56.6327071  11.2494165  65.4054647
  55.2842663  11.8947930  65.6443742  51.7586130  -1.7287290  46.0199768
  51.7464800  -0.7845450  46.1768039  52.6509552  -1.9117145  45.7259229
  49.9322092  18.1950614  57.4457446  50.8349338  18.2274224  57.7623941
  49.7059462  17.2651065  57.4603782  51.6875694  16.9481600  54.1067525
  50.7371325  16.9483462  53.9931897  51.9908180  16.2014335  53.5903559
  47.5780010   1.1540282  64.3650886  48.4411472   0.7977087  64.5754211
  47.0045421   0.8154177  65.0526290  67.4228387  22.7842139  55.1713287
  68.0606797  22.6648886  54.4676627  67.3049230  23.7322983  55.2301239
  64.2318093  22.7369567  55.1074812  63.8936605  22.6210632  54.2195347
  65.1007862  22.3360732  55.0875818  60.0904909  24.5905043  51.0971703
  59.5269774  24.4994980  50.3287990  59.9757304  23.7704948  51.5774195
  64.7137876  23.8904419  61.0661017  64.7026517  23.4957217  60.1941521
  64.8758516  23.1570491  61.6594789  57.6369341  26.0856235  53.9355923
  58.4290633  25.7447060  53.5202222  57.8765991  26.1951210  54.8558076
  65.6704468  28.2576011  46.4086168  65.0192448  28.8430091  46.0220181
  66.4648831  28.7882206  46.4681205  59.5960095  25.3465148  46.8073302
  60.3690971  24.7994135  46.6686178  59.9485494  26.2109397  47.0187763
  61.4345138  26.6741530  60.0140201  61.1435004  27.5787161  59.8986868
  62.0702122  26.7158058  60.7284271  62.3601344  24.0518379  56.6041561
  62.9564917  23.8274401  55.8898524  62.4176316  23.3103124  57.2067009
  61.9326373  21.5057814  44.4391752  62.1851893  20.9839336  43.6775215
  60.9950932  21.3423960  44.5418435  66.9769656  20.5093593  52.2466495
  67.7632745  20.0913016  51.8956912  67.2408360  21.4139685  52.4148144
  67.1479733  25.9466443  46.9455152  66.5125566  26.0201069  47.6576057
  66.8177139  26.5360042  46.2674231  72.3778083  20.4468826  53.1499474
  73.1103255  19.8768043  53.3837303  71.6217438  20.0590426  53.5905979
  61.6522662  23.4085920  46.6416127  61.5358920  22.7330824  47.3097211
  61.7624921  22.9218294  45.8248280  63.9954202  22.8696067  50.3462816
  63.6312410  22.3426688  51.0575738  64.8521318  22.4794536  50.1729301
  69.9003503  14.1590400  57.6094082  69.5686828  15.0285811  57.3855297
  69.3049116  13.8426684  58.2888113  63.6359689  17.8985967  45.3424165
  63.8034092  18.7666203  45.7094636  63.4456859  18.0613249  44.4185454
  66.3935023  26.3602946  57.0089995  66.0935746  27.2627985  56.9005802
  66.0486082  26.0935129  57.8611148  59.8447504  22.8116743  53.0426699
  58.9198001  22.6792957  53.2504391  60.0931917  23.5910962  53.5396642
  69.7932166  18.8785486  54.6887432  68.8849044  18.8100895  54.3946193
  69.7419762  19.3557431  55.5169258  63.6148910  20.3543625  46.3270831
  63.4948536  20.8000675  47.1656312  62.9201499  20.7028942  45.7684370
  57.2056315  22.4550016  53.8770488  57.3348696  22.7084495  54.7909900
  56.5253766  23.0477724  53.5575144  63.8673032  20.2975132  62.6322330
  63.0906366  20.8569052  62.6225194  64.5063595  20.7831915  63.1537200
  71.6593813  17.0801925  56.4665306  71.0168193  17.3734458  55.8205101
  71.1548741  16.9654845  57.2718503  69.3133976  20.8265098  47.1551165
  70.2251833  21.0592484  46.9798863  68.8043624  21.4102142  46.5926244
  62.1219405  23.1060585  62.1940297  62.8634089  23.6445629  61.9175120
  61.4156390  23.7326874  62.3511848  67.5974744  25.2489726  60.7912458
  68.0058100  24.8072136  60.0467090  66.8752006  24.6742353  61.0446651
  63.9505814  20.1862332  58.1646015  64.7967009  20.6101746  58.3080664
  63.8904452  19.5295957  58.8584578  67.9203559  25.8090916  54.5464747
  67.2912421  25.9736630  53.8440815  67.5329221  26.2232526  55.3175711
  71.7992791  26.7445354  51.9009111  71.1143829  27.1244255  51.3506144
  71.8836640  27.3540681  52.6341058  67.1005260  17.8466701  59.8227189
  66.8566191  18.6008761  59.2861464  67.3765190  18.2252048  60.6574436
  69.0543722  24.3905313  58.5004454  69.2660618  25.0337073  57.8238835
  69.0073471  23.5567630  58.0326384  66.6569951  17.0023134  55.4041026
  65.7954430  17.3004387  55.6957764  66.6832386  17.2193533  54.4722059
  63.4731521  25.5465324  51.8114832  63.9369866  25.8253027  51.0219455
  63.2088319  24.6448769  51.6287923  60.3655602  25.0936806  54.7494595
  60.9356959  25.5224074  54.1112080  60.9563714  24.8119390  55.4478781
  62.4100407  21.6688477  48.6204397  63.1124450  22.1209520  49.0878324
  62.0781035  21.0272295  49.2484290  60.8580768  20.2600233  62.9955607
  60.2279429  20.9416514  63.2291003  60.7516856  20.1483315  62.0508745
  56.1525741  19.9272029  53.9221531  55.3624795  20.1829558  53.4461641
  56.6436988  20.7420367  54.0273571  70.1689550  27.2677268  56.6726812
  70.9906994  26.8657456  56.3909493  70.1651953  27.1645503  57.6242927
  58.1040486  20.2916609  50.8805007  57.3071649  20.4035303  51.3988503
  57.8766078  20.6303261  50.0145898  63.9346154  26.8161312  58.8287522
  63.9990586  27.2781719  59.6645694  63.2257078  26.1858677  58.9569832
  54.4363444  20.1802520  56.3536522  54.6871482  21.0649530  56.6194097
  54.9722992  20.0007121  55.5811613  78.2595543  23.6116017  53.0211783
  77.5059252  23.0423415  52.8655787  78.3943085  23.5778681  53.9682418
  63.6494171  28.4829419  48.6966502  63.5139846  29.3280955  49.1251350
  64.1903984  28.6848697  47.9332436  60.1361511  14.5620999  65.3580858
  59.7428457  14.0087198  66.0328502  60.9527651  14.8731578  65.7487375
  57.1023569  26.0004857  49.2694427  57.6148089  26.7948108  49.4199992
  57.7546282  25.3031148  49.2028029  63.0529472  15.9778878  62.9501114
  63.7939185  16.5786031  62.8705577  63.2847395  15.2356516  62.3919157
  58.1970810  21.1635245  61.2279344  58.0824325  20.2620503  61.5286443
  57.3415328  21.4098942  60.8764160  65.2762648  29.1052986  62.8266844
  64.8326502  28.3189364  62.5087749  65.9379861  29.2932136  62.1610735
  60.0349769  30.6348787  57.3527523  60.5857194  30.5065851  56.5804517
  59.1961245  30.9343676  57.0022416  67.3743886  29.3855786  60.8548246
  67.3562361  30.2064667  60.3628515  68.2963806  29.2609861  61.0798387
  63.8316940  26.8999915  61.6971754  64.3645277  26.1388203  61.4671062
  63.3031021  26.6073567  62.4395909  66.9986635  12.0059981  57.2265396
  66.6550904  12.8961623  57.1504506  67.3665598  11.8161639  56.3634981
  55.0672486  24.3293512  50.0453998  55.9047708  24.7390520  49.8287706
  55.2450753  23.3892954  50.0154192  66.9636918  21.9968592  45.7337831
  66.4483541  22.7673197  45.9726218  66.6914226  21.3233728  46.3570892
  64.5484029  16.8418293  50.7923069  63.6925625  16.4525143  50.6128708
  64.9610980  16.9210254  49.9322855  66.0783175  14.3764636  55.1914629
  65.5747971  14.3394771  54.3782434  66.3713782  15.2857379  55.2511286
  62.3226061  14.4603366  54.1980811  63.1879058  14.2646175  53.8386700
  62.3903570  14.2313718  55.1250168  71.9371192  24.7500947  47.6691004
  71.1600635  24.4112106  47.2246167  72.6162673  24.7553570  46.9945969
  66.7523221  19.8695684  47.5597612  66.4473356  20.1841834  48.4107755
  67.7053663  19.9477104  47.6024945  65.1969653  26.0285908  49.2090566
  64.6691014  25.2938667  48.8963804  64.6957155  26.8060584  48.9630534
  70.1762499  24.2234928  54.3257612  69.5186173  24.9134190  54.4137741
  70.9802898  24.6131360  54.6691599  59.9288380  16.6905574  51.5697178
  60.5032132  16.4680755  50.8370371  60.5159363  16.7594268  52.3225779
  68.9867957  22.5779301  52.3761554  69.4999839  23.2109293  52.8783264
  69.6369181  21.9780496  52.0104914  60.2557967  18.7210035  45.5893063
  59.4195280  19.0584721  45.9102338  60.1162737  18.5859015  44.6520200
  62.2311048  13.5646823  50.2972247  61.5775460  13.2495840  49.6728862
  62.1891522  12.9422563  51.0232070  63.3422253  23.8466118  42.2125539
  62.4349315  23.6155371  42.4116688  63.8393285  23.0503737  42.3999521
  65.4648788  20.0528756  54.6219895  64.5471350  20.2743703  54.4641583
  65.8808932  20.1275067  53.7631602  66.2483836  21.4520172  49.7522575
  66.9955655  21.9641569  49.4429697  66.5175426  21.1304225  50.6126969
  64.5210486  23.9478713  46.7349529  63.6121706  23.6637746  46.8321999
  64.5505570  24.3677791  45.8752836  69.7529754  27.5585302  50.5040697
  69.2992081  26.7176212  50.5605887  69.1223720  28.1946701  50.8415477
  68.6962673  18.4877288  51.7341364  67.9585430  17.9754675  52.0651607
  68.9489447  18.0477670  50.9224641  68.1962693  29.3961799  51.4390515
  68.4885667  29.9566856  50.7202881  68.7061314  29.6890360  52.1943674
  68.7974301  11.2653540  52.3283134  69.1033177  10.4050904  52.0409049
  69.5226905  11.8571161  52.1282127  55.0898657  21.6684227  50.7164731
  54.8923056  21.0753588  49.9915798  54.5345321  21.3636437  51.4340670
  63.0695380  21.5607333  52.8359325  63.1243990  20.6081170  52.7601801
  62.2586582  21.7166772  53.3200623  64.2186574  25.4887456  44.0737608
  63.7806004  24.7723315  43.6143245  64.9597015  25.7163571  43.5122699
  61.0087740  20.1784393  50.5949703  60.1955606  20.4778564  51.0014896
  61.5046734  19.7840082  51.3124186  63.1596318  30.1742150  52.5283968
  63.1172497  30.4002996  51.5992500  64.0759017  29.9405525  52.6769769
  66.6061952  20.6426218  59.4264597  66.9611340  20.8697691  60.2859063
  67.2534083  20.9744594  58.8041853  72.3359689  23.7644653  50.1313926
  72.1977587  23.9546249  49.2035116  71.9795908  24.5264036  50.5881978
  60.5001815  17.7502749  56.2110938  61.1401194  17.6091508  55.5133902
  59.6679346  17.4637262  55.8349540  72.3629068  25.8321180  55.1425198
  72.7965575  25.7396470  55.9908252  73.0760649  25.8078681  54.5045214
  61.2762119  27.0505179  52.3245931  62.0702717  26.5555499  52.1228506
  60.5653811  26.5223042  51.9613636  66.0956963  29.4323275  56.6758298
  66.1493986  30.0014211  57.4436014  65.2271745  29.6025160  56.3112336
  57.5844882  21.1948261  48.4005684  56.6542470  21.1332716  48.6175646
  57.6802354  20.6724214  47.6042325  57.5030431  17.7203074  50.9883925
  57.7637249  18.6348407  50.8793086  58.3247604  17.2527516  51.1380538
  58.9755357  19.1340831  58.1582750  59.6478410  18.9258193  57.5095399
  58.1485143  18.9362917  57.7187982  73.2244618  25.8744881  57.6758083
  73.4180508  26.7790692  57.9217358  73.1245236  25.4152300  58.5096668
  64.8780929  15.7602772  60.1748411  64.2308844  16.4592721  60.0812887
  65.6481944  16.1938916  60.5424659  68.2859727  26.0251624  63.2498964
  68.1345233  25.7962176  62.3329048  68.2764406  26.9822225  63.2630309
  65.0545063  23.5983537  58.2345230  65.9837123  23.7494696  58.0614198
  64.6336093  23.6867557  57.3793877  63.8533395  27.6234201  56.0043768
  63.7144481  27.2552985  56.8769706  63.0647991  28.1381840  55.8327726
  65.4038610  27.0015804  53.3932606  65.0688443  26.9616574  54.2890256
  64.9042556  26.3360520  52.9203016  59.3782854  22.4083434  58.9185187
  59.2402652  21.6763673  59.5196726  60.2887777  22.3192334  58.6369375
  68.3397802  24.3471838  43.6669665  67.7226972  23.6218666  43.5702718
  67.8714290  25.1081198  43.3236740  62.0065155  22.1203393  58.4068867
  62.7164773  21.4796585  58.3655485  61.9634463  22.3716288  59.3295047
  69.9951933  29.0570746  61.3275446  69.9364480  28.3729967  60.6606029
  70.3971452  29.7989736  60.8756072  60.7194089  19.1068611  60.2264506
  60.1831446  18.6559349  60.8786102  60.1310797  19.2414520  59.4834970
  60.1296348  18.5657262  42.7890970  59.2525814  18.4446063  42.4253216
  60.6054101  17.7743341  42.5369858  69.9969341  27.0210330  59.5589425
  69.1096119  26.6836252  59.6815824  70.5667892  26.2893362  59.7958191
  51.6498488  23.3534422  52.8832477  52.3369528  23.0396152  52.2953492
  51.4946616  24.2575787  52.6099728  56.4533210  18.2424619  57.3117501
  56.3691399  17.6350288  56.5767910  55.6315916  18.7333637  57.3126997
  63.5270494  31.6811783  56.5250669  63.4540665  32.4866754  57.0369973
  63.0847887  31.8803749  55.6998690  66.6256924  16.7278182  52.6787696
  67.1225623  15.9748145  52.3588766  65.8543905  16.7642499  52.1130905
  74.4786681  22.4318548  54.3205987  74.4676557  23.3143263  53.9499920
  73.6104061  22.0790099  54.1260524  65.9869178  31.5798617  58.6808827
  66.6997150  32.2146082  58.6084729  65.4959206  31.6762483  57.8648829
  67.7086704  25.4849869  50.2526119  66.7742983  25.6051332  50.0830823
  67.8863373  24.5822336  49.9886129  63.2091893  18.8695565  52.4059380
  62.8389680  18.3166606  53.0940286  63.7050985  18.2653699  51.8534380
  71.0959256  21.3267189  50.7876153  71.5619708  22.1595180  50.7136456
  71.5466756  20.8612170  51.4921412  61.0381091  29.3293060  59.5014398
  61.7390551  29.9629543  59.6543792  60.5676206  29.6707792  58.7410037
  69.1635487  27.6711010  47.7862305  69.4395331  27.5567605  48.6956179
  68.2939986  27.2728495  47.7474478  69.0675919  13.6947776  54.8267054
  68.1538998  13.9252003  54.9949261  69.4969020  13.7786220  55.6781087
  68.8382377  21.8837668  57.3266948  68.1853827  22.1313575  56.6719401
  69.2162757  21.0701806  56.9929426  65.7989551  31.9197361  51.4295119
  65.9811945  31.1019017  51.8922871  66.6222537  32.1365053  50.9920009
  66.1331716  30.8465546  48.6910167  66.6619483  30.3358001  48.0780329
  66.3959936  30.5308076  49.5555700  64.8869950  22.6257479  63.8132986
  64.2110587  22.5251608  64.4835361  65.7097584  22.4696692  64.2768983
  56.6348809  28.8629415  56.4345501  57.2202246  28.1173103  56.5673405
  56.4373648  29.1733372  57.3182165  51.2266464  21.4335015  55.1549944
  51.2650563  20.8998606  55.9487062  50.7206757  20.9070221  54.5360921
  63.6292733  33.9324406  58.0490602  64.1811041  34.0956028  58.8139687
  63.9698926  34.5228844  57.3770626  58.6057226  16.2799556  58.6512486
  58.6698553  17.1414387  58.2389884  58.5424346  15.6673558  57.9184845
  58.0809499  18.3522689  62.2985521  58.7081538  17.9699766  62.9123045
  57.2237418  18.1336890  62.6641213  68.4803607  28.7585664  63.9039256
  69.0243511  29.3715622  63.4094211  67.8990452  29.3165242  64.4206269
  54.8575041  20.1599118  48.2303875  55.1528483  19.2509796  48.1770929
  53.9563077  20.1386857  47.9084878  66.7661120  31.8806382  55.0354284
  66.6412260  31.0796122  54.5265229  67.4240211  32.3752575  54.5468254
  58.3869288  18.2355114  54.2131424  57.6655874  18.8491082  54.0738897
  59.1762544  18.7712879  54.1348070  68.8296029  29.6815402  56.6633834
  67.8826364  29.5620753  56.5912161  69.1778802  28.7937900  56.7460095
  61.1895602  15.5709541  60.4872076  61.7130004  15.8171837  61.2498385
  60.9707935  16.4029576  60.0675213  56.5862883  17.8413215  48.3543201
  56.2575589  16.9610594  48.1718306  56.9402254  17.7860884  49.2419590
  65.8342462  29.4768118  52.8638186  65.6867424  28.5484825  53.0445756
  66.6595955  29.4988209  52.3795261  59.7004706  18.1286185  48.7218678
  60.0400779  18.6572106  47.9997287  60.1476827  18.4666591  49.4977245
  69.4376584  30.2996677  53.9503059  70.3623131  30.0939538  53.8127510
  69.2691887  30.0513078  54.8592400  62.3948147  16.5123236  58.1721746
  62.0544967  15.7131049  58.5742426  61.6887153  16.8124947  57.5998579
  63.0464619  13.5972548  56.6249069  63.8690688  13.1233026  56.5027960
  63.2902682  14.3763032  57.1247756  61.6872853  16.6260807  46.9211971
  62.4081216  17.0042059  46.4175688  61.0638157  17.3449684  47.0246949
  65.8303976  17.3305956  47.8570303  66.0467591  18.2130594  47.5559131
  65.3498043  16.9392169  47.1275945  60.5703198  20.2891669  54.4341048
  60.4247778  20.6031972  55.3265329  60.0928401  20.9076569  53.8811947
  62.4299580  17.2794217  54.4821937  62.4161149  16.3835310  54.1454235
  63.1472009  17.2864881  55.1160223  64.2825711  17.7131557  56.5275065
  64.0243489  18.6348628  56.5259395  63.7510752  17.3161992  57.2175529
  69.2271900  30.8182344  49.3065150  69.4008777  30.2528767  48.5539003
  69.7200791  31.6183239  49.1244640  55.0448860  22.8297013  57.3728709
  54.5002328  23.6056821  57.5048983  55.9228210  23.1767818  57.2147830
  61.8336476  16.1608597  49.7509508  61.9552388  15.2325243  49.9500395
  61.5438519  16.1747283  48.8387823  64.7027667  13.8463508  52.8876227
  64.7249364  13.9102841  51.9328207  65.1195726  13.0068016  53.0816734
  75.0811291  23.5818767  50.9255450  75.5242437  22.8326092  50.5274573
  74.2037801  23.5728904  50.5429182  70.2147072  30.1349109  46.4062049
  70.9097977  30.7555801  46.6249363  70.5570223  29.2844460  46.6814426
  55.8314882  21.9566910  60.2658866  55.0896618  22.1049545  60.8523496
  55.5107626  22.2175175  59.4025615  72.1138496  27.5848814  47.9349379
  72.6389820  27.9236087  47.2098699  72.0260848  26.6495829  47.7512514
  63.7758544  31.4982888  60.0639256  64.0845671  31.2532035  60.9361956
  64.5734026  31.7029526  59.5758126  61.2453028  29.1958806  54.3666934
  60.6233038  28.5329512  54.0669162  61.9157895  29.2219938  53.6840582
  61.3177556  17.6740595  63.9599440  61.3665711  18.5502717  63.5777210
  61.8600070  17.1317988  63.3871083  71.8032402  28.2181718  63.2400577
  71.0127945  28.2005857  62.7005077  71.5665756  28.7570011  63.9949614
  71.9230277  25.0674184  60.5533306  71.9728282  24.9024192  61.4948829
  71.8144200  24.2001443  60.1631187  60.8066535  27.7462730  47.8425395
  60.9554656  28.4298194  47.1892067  61.6132979  27.7267820  48.3574850
  69.2134039  21.0505112  61.8692612  70.1143902  20.9111577  61.5776610
  69.2882014  21.2159567  62.8090790  63.5476844  18.4271967  60.7145799
  62.6780154  18.7205533  60.4428387  63.7836325  19.0112412  61.4353062
  73.4248474  27.4871126  60.7975327  73.1333282  27.8501106  61.6338788
  72.8120605  26.7738134  60.6188659  74.6244156  25.0524005  53.3177898
  75.4591047  25.4913810  53.4815458  74.7603285  24.5762659  52.4986143
  71.6735662  22.6103740  59.2655385  72.1489783  22.8031387  58.4574237
  70.7501227  22.6662926  59.0198769  58.5619168  23.7727907  48.8486464
  58.3165210  22.8690237  49.0466674  58.7315083  23.7745058  47.9065942
  66.2515878  14.6451584  58.2311219  66.7697822  15.3812611  57.9057708
  65.8971011  14.9515577  59.0657978  57.8314816  19.5056265  46.3472625
  57.1384061  19.5800620  45.6912661  57.5866568  18.7416609  46.8694142
  66.5028472  11.0651866  53.7512116  66.7830226  10.3975055  54.3772542
  67.2879079  11.2580962  53.2386780  70.3737331  19.4869500  57.4983691
  71.3254754  19.5867598  57.5195915  70.2040781  18.6947769  58.0081775
  68.3951710  16.5725084  57.6843092  67.8001642  16.8530096  56.9889580
  68.1101407  17.0618985  58.4559833  67.5259201  30.5248010  46.4445724
  68.4589874  30.4593572  46.6478600  67.4382414  31.3604277  45.9860257
  70.1547217  29.8413881  43.4049672  70.0760849  29.5073744  44.2985430
  70.9756884  30.3335649  43.4041144  72.8525409  22.7075620  56.6125991
  72.8201729  21.7691621  56.7985674  73.4626032  22.7859657  55.8791815
  64.6908739  21.5771673  42.6553195  65.6367844  21.4477881  42.7241613
  64.3122984  20.8386335  43.1322623  73.0019897  19.4986663  56.6584274
  72.4858946  18.7145120  56.4714203  73.8859846  19.1705380  56.8230793
  70.6630624  13.2427679  52.6180086  70.4655445  12.9342767  53.5023418
  71.2730330  13.9689318  52.7478016  78.6701958  23.7691627  55.7532027
  79.4005347  23.5076915  56.3139731  78.0608904  23.0320349  55.7934095
  76.7517256  21.9099489  56.3506479  76.0250419  21.7755454  55.7422970
  76.3364542  22.2176318  57.1563197  64.5747432  25.6289419  64.1153852
  65.4950441  25.8068018  64.3093898  64.5397015  24.6845465  63.9633551
  62.8751657  19.5021649  42.5908080  61.9683112  19.2054762  42.6670793
  63.1527638  19.2051468  41.7242366  53.7929597  20.8228013  53.0407126
  53.4732381  19.9693321  52.7481500  53.2463025  21.0376591  53.7965094
  57.5709504  23.5390454  56.7576633  57.7895514  24.4707562  56.7764667
  57.9835278  23.1798428  57.5431437  64.4913722  14.0458539  48.7452321
  63.6814451  13.7005624  49.1207567  65.1798139  13.7366083  49.3339933
  66.4204271  13.1236586  50.3676618  66.9735309  13.5432039  51.0266641
  66.6574357  12.1972334  50.4099574  62.4437370  19.1123660  66.1479382
  62.3434097  20.0618017  66.0791473  62.2258912  18.7841898  65.2755452
  61.6450441  16.3608585  42.7320059  62.5069605  16.6863483  42.9915876
  61.8300785  15.5740081  42.2193125  53.6617857  24.4430924  55.0100248
  52.9681328  24.0284877  54.4970202  54.4090848  24.4851461  54.4133667
  69.7983078  15.2337111  49.8755282  69.2181747  15.8921915  49.4933334
  69.5319010  14.4114456  49.4642700  68.2486644  14.6342169  52.0776602
  68.7486422  14.7458703  51.2690921  68.8922252  14.3303222  52.7177411
  62.3068640  22.5420798  64.9644443  61.8235722  23.3421159  65.1708332
  62.3929579  22.5528743  64.0111887  55.5754599  24.3749178  52.8866263
  55.5525288  24.4736865  51.9348146  55.8855236  25.2214329  53.2083429
  58.2341977  26.4325333  57.0012877  59.1885231  26.4009275  56.9342809
  58.0354501  25.9715957  57.8163103  58.8241359  25.0026449  59.5683675
  59.6434248  25.4970528  59.5918512  59.0978167  24.0858417  59.5401242
  68.5807956  17.3937201  48.9311630  67.6933811  17.6786852  48.7131825
  68.9961945  17.2330965  48.0838907  71.9322492  17.4183722  52.6465970
  72.7082882  17.9080175  52.9190586  71.2070626  17.8441777  53.1037839
  74.3695050  18.1311342  53.7039910  74.9639541  17.8907078  52.9933218
  74.4421634  17.4118472  54.3313446  67.7251169  27.1581876  43.0259650
  68.4287019  27.3631879  43.6417306  67.0013818  27.7258638  43.2908734
  68.5548979  22.9091737  49.1461920  68.4984181  23.3660289  48.3069553
  69.1077322  22.1482422  48.9684763  72.3653785  18.6981469  49.9712040
  72.1090720  18.2978105  50.8020248  71.7406653  19.4125263  49.8462179
  76.6766123  21.4377543  52.4783331  76.1165681  21.5070732  53.2514893
  76.0709627  21.2618527  51.7582828  69.6337867  27.5964405  45.0758110
  70.4683470  27.1645604  44.8935585  69.4722209  27.4246419  46.0035005
  69.2883759  24.0996519  46.4414450  69.2332563  23.9340790  45.5002894
  68.6629814  24.8072552  46.5976639  54.0776274  19.3364583  60.2675872
  54.7235137  18.8263537  60.7563097  53.8693425  20.0733265  60.8419297
  66.6029666  26.4045431  65.7668012  67.4720826  26.5786083  65.4054647
  66.1236417  27.2239847  65.6443742  62.5979884  13.6004628  46.0199768
  62.5858554  14.5446468  46.1768039  63.4903306  13.4174773  45.7259229
  66.4132004  10.1947404  50.2745705  65.6464399   9.6405891  50.4202387
  66.8242709  10.2669273  51.1359856  58.4173765  16.4832200  64.3650886
  59.2805226  16.1269005  64.5754211  57.8439175  16.1446095  65.0526290
  78.2622142  38.1134056  55.1713287  78.9000552  37.9940804  54.4676627
  78.1442985  39.0614900  55.2301239  75.0711848  38.0661485  55.1074812
  74.7330359  37.9502549  54.2195347  75.9401616  37.6652650  55.0875818
  75.5531631  39.2196336  61.0661017  75.5420272  38.8249135  60.1941521
  75.7152270  38.4862409  61.6594789  77.8163410  35.8385510  52.2466495
  78.6026499  35.4204933  51.8956912  78.0802114  36.7431603  52.4148144
  77.9873487  41.2758361  46.9455152  77.3519320  41.3492987  47.6576057
  77.6570894  41.8651959  46.2674231  83.2171837  35.7760744  53.1499474
  83.9497009  35.2059960  53.3837303  82.4611193  35.3882344  53.5905979
  80.7397258  29.4882318  57.6094082  80.4080582  30.3577729  57.3855297
  80.1442871  29.1718602  58.2888113  74.4753444  33.2277885  45.3424165
  74.6427846  34.0958121  45.7094636  74.2850613  33.3905166  44.4185454
  77.2328777  41.6894864  57.0089995  76.9329500  42.5919902  56.9005802
  76.8879837  41.4227047  57.8611148  80.6325921  34.2077404  54.6887432
  79.7242798  34.1392812  54.3946193  80.5813517  34.6849349  55.5169258
  74.4542665  35.6835542  46.3270831  74.3342290  36.1292593  47.1656312
  73.7595253  36.0320860  45.7684370  74.7066787  35.6267049  62.6322330
  73.9300121  36.1860970  62.6225194  75.3457350  36.1123832  63.1537200
  82.4987567  32.4093842  56.4665306  81.8561948  32.7026375  55.8205101
  81.9942496  32.2946763  57.2718503  80.1527731  36.1557015  47.1551165
  81.0645587  36.3884402  46.9798863  79.6437378  36.7394060  46.5926244
  72.9613159  38.4352503  62.1940297  73.7027843  38.9737547  61.9175120
  72.2550144  39.0618792  62.3511848  78.4368499  40.5781643  60.7912458
  78.8451855  40.1364054  60.0467090  77.7145760  40.0034271  61.0446651
  74.7899569  35.5154250  58.1646015  75.6360764  35.9393664  58.3080664
  74.7298206  34.8587874  58.8584578  82.6386545  42.0737272  51.9009111
  81.9537583  42.4536173  51.3506144  82.7230394  42.6832598  52.6341058
  77.9399014  33.1758618  59.8227189  77.6959946  33.9300679  59.2861464
  78.2158945  33.5543966  60.6574436  79.8937477  39.7197231  58.5004454
  80.1054372  40.3628991  57.8238835  79.8467225  38.8859547  58.0326384
  77.4963706  32.3315051  55.4041026  76.6348185  32.6296305  55.6957764
  77.5226140  32.5485450  54.4722059  71.6974523  35.5892151  62.9955607
  71.0673183  36.2708432  63.2291003  71.5910611  35.4775233  62.0508745
  66.9919495  35.2563947  53.9221531  66.2018549  35.5121476  53.4461641
  67.4830743  36.0712285  54.0273571  81.0083305  42.5969186  56.6726812
  81.8300748  42.1949373  56.3909493  81.0045708  42.4937420  57.6242927
  68.9434241  35.6208526  50.8805007  68.1465404  35.7327220  51.3988503
  68.7159833  35.9595178  50.0145898  65.2757198  35.5094437  56.3536522
  65.5265237  36.3941447  56.6194097  65.8116747  35.3299039  55.5811613
  89.0989298  38.9407935  53.0211783  88.3453006  38.3715333  52.8655787
  89.2336839  38.9070599  53.9682418  70.9755265  29.8912917  65.3580858
  70.5822211  29.3379115  66.0328502  71.7921406  30.2023495  65.7487375
  73.8923226  31.3070796  62.9501114  74.6332940  31.9077949  62.8705577
  74.1241149  30.5648434  62.3919157  69.0364564  36.4927163  61.2279344
  68.9218080  35.5912420  61.5286443  68.1809082  36.7390860  60.8764160
  76.1156402  44.4344903  62.8266844  75.6720256  43.6481282  62.5087749
  76.7773616  44.6224054  62.1610735  78.2137640  44.7147703  60.8548246
  78.1956116  45.5356584  60.3628515  79.1357560  44.5901779  61.0798387
  77.8380389  27.3351899  57.2265396  77.4944659  28.2253540  57.1504506
  78.2059352  27.1453556  56.3634981  77.8030672  37.3260510  45.7337831
  77.2877296  38.0965115  45.9726218  77.5307981  36.6525646  46.3570892
  75.3877783  32.1710211  50.7923069  74.5319380  31.7817061  50.6128708
  75.8004735  32.2502171  49.9322855  76.9176930  29.7056554  55.1914629
  76.4141725  29.6686689  54.3782434  77.2107537  30.6149297  55.2511286
  73.1619816  29.7895284  54.1980811  74.0272812  29.5938092  53.8386700
  73.2297325  29.5605635  55.1250168  82.7764946  40.0792865  47.6691004
  81.9994389  39.7404024  47.2246167  83.4556427  40.0845488  46.9945969
  77.5916975  35.1987602  47.5597612  77.2867111  35.5133751  48.4107755
  78.5447417  35.2769022  47.6024945  76.0363407  41.3577825  49.2090566
  75.5084769  40.6230585  48.8963804  75.5350910  42.1352502  48.9630534
  81.0156253  39.5526846  54.3257612  80.3579928  40.2426107  54.4137741
  81.8196652  39.9423278  54.6691599  70.7682135  32.0197492  51.5697178
  71.3425887  31.7972673  50.8370371  71.3553117  32.0886186  52.3225779
  79.8261712  37.9071219  52.3761554  80.3393594  38.5401210  52.8783264
  80.4762936  37.3072414  52.0104914  71.0951722  34.0501953  45.5893063
  70.2589034  34.3876639  45.9102338  70.9556492  33.9150932  44.6520200
  73.0704802  28.8938741  50.2972247  72.4169215  28.5787758  49.6728862
  73.0285277  28.2714481  51.0232070  76.3042543  35.3820674  54.6219895
  75.3865104  35.6035621  54.4641583  76.7202686  35.4566985  53.7631602
  77.0877591  36.7812090  49.7522575  77.8349410  37.2933487  49.4429697
  77.3569180  36.4596142  50.6126969  80.5923508  42.8877220  50.5040697
  80.1385835  42.0468130  50.5605887  79.9617475  43.5238618  50.8415477
  79.5356428  33.8169206  51.7341364  78.7979185  33.3046592  52.0651607
  79.7883201  33.3769588  50.9224641  79.6368055  26.5945458  52.3283134
  79.9426932  25.7342821  52.0409049  80.3620660  27.1863078  52.1282127
  73.9089135  36.8899251  52.8359325  73.9637745  35.9373087  52.7601801
  73.0980337  37.0458690  53.3200623  71.8481495  35.5076311  50.5949703
  71.0349360  35.8070481  51.0014896  72.3440489  35.1132000  51.3124186
  77.4455706  35.9718135  59.4264597  77.8005094  36.1989608  60.2859063
  78.0927838  36.3036512  58.8041853  83.1753443  39.0936571  50.1313926
  83.0371342  39.2838167  49.2035116  82.8189662  39.8555954  50.5881978
  71.3395569  33.0794666  56.2110938  71.9794949  32.9383425  55.5133902
  70.5073100  32.7929180  55.8349540  83.2022823  41.1613098  55.1425198
  83.6359330  41.0688387  55.9908252  83.9154404  41.1370599  54.5045214
  68.3424186  33.0494991  50.9883925  68.6031003  33.9640325  50.8793086
  69.1641358  32.5819434  51.1380538  69.8149111  34.4632748  58.1582750
  70.4872165  34.2550111  57.5095399  68.9878898  34.2654834  57.7187982
  84.0638373  41.2036799  57.6758083  84.2574263  42.1082609  57.9217358
  83.9638991  40.7444218  58.5096668  75.7174683  31.0894689  60.1748411
  75.0702598  31.7884639  60.0812887  76.4875699  31.5230833  60.5424659
  79.1253481  41.3543542  63.2498964  78.9738988  41.1254093  62.3329048
  79.1158161  42.3114143  63.2630309  75.8938818  38.9275454  58.2345230
  76.8230878  39.0786614  58.0614198  75.4729848  39.0159475  57.3793877
  79.1791556  39.6763756  43.6669665  78.5620727  38.9510584  43.5702718
  78.7108045  40.4373116  43.3236740  72.8458909  37.4495311  58.4068867
  73.5558528  36.8088503  58.3655485  72.8028217  37.7008206  59.3295047
  80.8345688  44.3862664  61.3275446  80.7758234  43.7021884  60.6606029
  81.2365206  45.1281654  60.8756072  71.5587843  34.4360529  60.2264506
  71.0225200  33.9851267  60.8786102  70.9704552  34.5706438  59.4834970
  70.9690102  33.8949180  42.7890970  70.0919568  33.7737981  42.4253216
  71.4447855  33.1035258  42.5369858  80.8363095  42.3502248  59.5589425
  79.9489874  42.0128170  59.6815824  81.4061646  41.6185279  59.7958191
  67.2926964  33.5716536  57.3117501  67.2085153  32.9642206  56.5767910
  66.4709671  34.0625555  57.3126997  77.4650678  32.0570100  52.6787696
  77.9619378  31.3040062  52.3588766  76.6937660  32.0934417  52.1130905
  85.3180436  37.7610465  54.3205987  85.3070312  38.6435181  53.9499920
  84.4497815  37.4082016  54.1260524  78.5480459  40.8141787  50.2526119
  77.6136738  40.9343250  50.0830823  78.7257127  39.9114254  49.9886129
  74.0485647  34.1987483  52.4059380  73.6783435  33.6458523  53.0940286
  74.5444739  33.5945616  51.8534380  81.9353010  36.6559106  50.7876153
  82.4013462  37.4887098  50.7136456  82.3860511  36.1904088  51.4921412
  80.0029241  43.0002928  47.7862305  80.2789085  42.8859522  48.6956179
  79.1333740  42.6020413  47.7474478  79.9069673  29.0239693  54.8267054
  78.9932753  29.2543920  54.9949261  80.3362774  29.1078137  55.6781087
  79.6776132  37.2129585  57.3266948  79.0247582  37.4605493  56.6719401
  80.0556511  36.3993724  56.9929426  75.7263705  37.9549396  63.8132986
  75.0504342  37.8543526  64.4835361  76.5491338  37.7988610  64.2768983
  69.4450981  31.6091474  58.6512486  69.5092307  32.4706305  58.2389884
  69.3818101  30.9965475  57.9184845  68.9203253  33.6814606  62.2985521
  69.5475292  33.2991684  62.9123045  68.0631172  33.4628808  62.6641213
  79.3197362  44.0877581  63.9039256  79.8637266  44.7007540  63.4094211
  78.7384207  44.6457160  64.4206269  69.2263043  33.5647032  54.2131424
  68.5049629  34.1783000  54.0738897  70.0156299  34.1004797  54.1348070
  79.6689783  45.0107319  56.6633834  78.7220119  44.8912671  56.5912161
  80.0172556  44.1229818  56.7460095  72.0289356  30.9001458  60.4872076
  72.5523758  31.1463755  61.2498385  71.8101690  31.7321493  60.0675213
  67.4256638  33.1705133  48.3543201  67.0969344  32.2902512  48.1718306
  67.7796008  33.1152802  49.2419590  70.5398461  33.4578103  48.7218678
  70.8794533  33.9864024  47.9997287  70.9870581  33.7958509  49.4977245
  73.2341902  31.8415154  58.1721746  72.8938722  31.0422967  58.5742426
  72.5280908  32.1416864  57.5998579  73.8858373  28.9264466  56.6249069
  74.7084443  28.4524944  56.5027960  74.1296437  29.7054950  57.1247756
  72.5266608  31.9552724  46.9211971  73.2474970  32.3333977  46.4175688
  71.9031912  32.6741601  47.0246949  76.6697731  32.6597873  47.8570303
  76.8861345  33.5422511  47.5559131  76.1891798  32.2684087  47.1275945
  71.4096952  35.6183587  54.4341048  71.2641533  35.9323890  55.3265329
  70.9322156  36.2368487  53.8811947  73.2693335  32.6086135  54.4821937
  73.2554904  31.7127228  54.1454235  73.9865763  32.6156798  55.1160223
  75.1219466  33.0423475  56.5275065  74.8637244  33.9640545  56.5259395
  74.5904506  32.6453909  57.2175529  72.6730231  31.4900515  49.7509508
  72.7946142  30.5617161  49.9500395  72.3832273  31.5039201  48.8387823
  75.5421421  29.1755425  52.8876227  75.5643118  29.2394758  51.9328207
  75.9589480  28.3359934  53.0816734  85.9205046  38.9110685  50.9255450
  86.3636192  38.1618010  50.5274573  85.0431556  38.9020821  50.5429182
  66.6708636  37.2858827  60.2658866  65.9290372  37.4341463  60.8523496
  66.3501380  37.5467093  59.4025615  82.9532250  42.9140732  47.9349379
  83.4783574  43.2528005  47.2098699  82.8654603  41.9787747  47.7512514
  72.1571310  33.0032512  63.9599440  72.2059466  33.8794635  63.5777210
  72.6993825  32.4609905  63.3871083  82.6426156  43.5473635  63.2400577
  81.8521700  43.5297774  62.7005077  82.4059511  44.0861929  63.9949614
  82.7624031  40.3966102  60.5533306  82.8122036  40.2316109  61.4948829
  82.6537955  39.5293361  60.1631187  80.0527794  36.3797030  61.8692612
  80.9537656  36.2403495  61.5776610  80.1275768  36.5451485  62.8090790
  74.3870599  33.7563885  60.7145799  73.5173908  34.0497451  60.4428387
  74.6230079  34.3404330  61.4353062  84.2642228  42.8163043  60.7975327
  83.9727036  43.1793024  61.6338788  83.6514359  42.1030052  60.6188659
  85.4637910  40.3815923  53.3177898  86.2984802  40.8205727  53.4815458
  85.5997039  39.9054576  52.4986143  82.5129416  37.9395658  59.2655385
  82.9883538  38.1323304  58.4574237  81.5894982  37.9954844  59.0198769
  77.0909633  29.9743502  58.2311219  77.6091577  30.7104528  57.9057708
  76.7364765  30.2807495  59.0657978  68.6708570  34.8348183  46.3472625
  67.9777815  34.9092538  45.6912661  68.4260322  34.0708526  46.8694142
  77.3422227  26.3943784  53.7512116  77.6223981  25.7266973  54.3772542
  78.1272834  26.5872880  53.2386780  81.2131085  34.8161418  57.4983691
  82.1648508  34.9159516  57.5195915  81.0434536  34.0239687  58.0081775
  79.2345465  31.9017001  57.6843092  78.6395397  32.1822014  56.9889580
  78.9495161  32.3910902  58.4559833  83.6919163  38.0367538  56.6125991
  83.6595483  37.0983538  56.7985674  84.3019787  38.1151574  55.8791815
  75.5302494  36.9063591  42.6553195  76.4761599  36.7769799  42.7241613
  75.1516739  36.1678253  43.1322623  83.8413652  34.8278581  56.6584274
  83.3252700  34.0437038  56.4714203  84.7253600  34.4997298  56.8230793
  81.5024378  28.5719597  52.6180086  81.3049200  28.2634685  53.5023418
  82.1124084  29.2981236  52.7478016  89.5095713  39.0983545  55.7532027
  90.2399101  38.8368833  56.3139731  88.9002658  38.3612267  55.7934095
  87.5911010  37.2391407  56.3506479  86.8644174  37.1047372  55.7422970
  87.1758297  37.5468236  57.1563197  75.4141186  40.9581337  64.1153852
  76.3344196  41.1359936  64.3093898  75.3790769  40.0137382  63.9633551
  73.7145411  34.8313567  42.5908080  72.8076866  34.5346680  42.6670793
  73.9921392  34.5343385  41.7242366  75.3307477  29.3750457  48.7452321
  74.5208205  29.0297542  49.1207567  76.0191894  29.0658001  49.3339933
  77.2598025  28.4528504  50.3676618  77.8129064  28.8723957  51.0266641
  77.4968111  27.5264252  50.4099574  73.2831124  34.4415577  66.1479382
  73.1827851  35.3909934  66.0791473  73.0652666  34.1133816  65.2755452
  72.4844196  31.6900502  42.7320059  73.3463360  32.0155401  42.9915876
  72.6694540  30.9031998  42.2193125  80.6376832  30.5629029  49.8755282
  80.0575501  31.2213833  49.4933334  80.3712765  29.7406373  49.4642700
  79.0880399  29.9634086  52.0776602  79.5880177  30.0750621  51.2690921
  79.7316006  29.6595139  52.7177411  73.1462394  37.8712716  64.9644443
  72.6629476  38.6713076  65.1708332  73.2323333  37.8820661  64.0111887
  79.4201710  32.7229119  48.9311630  78.5327565  33.0078770  48.7131825
  79.8355699  32.5622883  48.0838907  82.7716246  32.7475640  52.6465970
  83.5476636  33.2372093  52.9190586  82.0464380  33.1733694  53.1037839
  85.2088805  33.4603259  53.7039910  85.8033296  33.2198995  52.9933218
  85.2815389  32.7410390  54.3313446  78.5644924  42.4873794  43.0259650
  79.2680774  42.6923796  43.6417306  77.8407572  43.0550556  43.2908734
  79.3942734  38.2383655  49.1461920  79.3377935  38.6952207  48.3069553
  79.9471076  37.4774340  48.9684763  83.2047540  34.0273387  49.9712040
  82.9484474  33.6270023  50.8020248  82.5800408  34.7417181  49.8462179
  87.5159878  36.7669460  52.4783331  86.9559436  36.8362650  53.2514893
  86.9103381  36.5910445  51.7582828  80.4731621  42.9256323  45.0758110
  81.3077225  42.4937522  44.8935585  80.3115964  42.7538337  46.0035005
  80.1277513  39.4288436  46.4414450  80.0726317  39.2632708  45.5002894
  79.5023568  40.1364469  46.5976639  64.9170028  34.6656501  60.2675872
  65.5628892  34.1555455  60.7563097  64.7087179  35.4025182  60.8419297
  77.4423420  41.7337348  65.7668012  78.3114580  41.9078000  65.4054647
  76.9630172  42.5531765  65.6443742  73.4373639  28.9296545  46.0199768
  73.4252308  29.8738385  46.1768039  74.3297061  28.7466691  45.7259229
  77.2525758  25.5239322  50.2745705  76.4858154  24.9697809  50.4202387
  77.6636463  25.5961191  51.1359856  69.2567519  31.8124118  64.3650886
  70.1198981  31.4560923  64.5754211  68.6832930  31.4738013  65.0526290
  89.1015896  53.4425974  55.1713287  89.7394306  53.3232722  54.4676627
  88.9836739  54.3906818  55.2301239  85.9105602  53.3953402  55.1074812
  85.5724114  53.2794467  54.2195347  86.7795371  52.9944567  55.0875818
  86.3925385  54.5488254  61.0661017  86.3814026  54.1541052  60.1941521
  86.5546025  53.8154327  61.6594789  87.3491977  58.9159846  46.4086168
  86.6979957  59.5013927  46.0220181  88.1436340  59.4466041  46.4681205
  83.1132647  57.3325366  60.0140201  82.8222513  58.2370997  59.8986868
  83.7489631  57.3741893  60.7284271  88.6557165  51.1677428  52.2466495
  89.4420254  50.7496851  51.8956912  88.9195869  52.0723520  52.4148144
  88.8267242  56.6050278  46.9455152  88.1913075  56.6784905  47.6576057
  88.4964648  57.1943877  46.2674231  94.0565592  51.1052661  53.1499474
  94.7890764  50.5351878  53.3837303  93.3004947  50.7174262  53.5905979
  83.3310171  54.0669756  46.6416127  83.2146429  53.3914659  47.3097211
  83.4412430  53.5802130  45.8248280  85.6741711  53.5279903  50.3462816
  85.3099919  53.0010524  51.0575738  86.5308827  53.1378372  50.1729301
  91.5791012  44.8174235  57.6094082  91.2474337  45.6869646  57.3855297
  90.9836625  44.5010519  58.2888113  85.3147198  48.5569802  45.3424165
  85.4821601  49.4250039  45.7094636  85.1244368  48.7197084  44.4185454
  88.0722532  57.0186781  57.0089995  87.7723255  57.9211820  56.9005802
  87.7273591  56.7518965  57.8611148  91.4719675  49.5369321  54.6887432
  90.5636553  49.4684730  54.3946193  91.4207271  50.0141266  55.5169258
  85.2936419  51.0127460  46.3270831  85.1736045  51.4584511  47.1656312
  84.5989008  51.3612778  45.7684370  83.0543311  63.7831102  49.9760963
  82.9767341  64.7338927  50.0549443  82.4504955  63.4376974  50.6335889
  85.5460541  50.9558967  62.6322330  84.7693875  51.5152887  62.6225194
  86.1851104  51.4415750  63.1537200  93.3381322  47.7385760  56.4665306
  92.6955702  48.0318293  55.8205101  92.8336250  47.6238680  57.2718503
  90.9921485  51.4848933  47.1551165  91.9039342  51.7176320  46.9798863
  90.4831133  52.0685977  46.5926244  83.8006913  53.7644420  62.1940297
  84.5421598  54.3029464  61.9175120  83.0943899  54.3910709  62.3511848
  89.2762253  55.9073561  60.7912458  89.6845609  55.4655971  60.0467090
  88.5539515  55.3326188  61.0446651  85.6293323  50.8446168  58.1646015
  86.4754518  51.2685581  58.3080664  85.5691961  50.1879792  58.8584578
  89.5991068  56.4674752  54.5464747  88.9699930  56.6320466  53.8440815
  89.2116730  56.8816361  55.3175711  93.4780300  57.4029189  51.9009111
  92.7931338  57.7828091  51.3506144  93.5624149  58.0124516  52.6341058
  88.7792769  48.5050536  59.8227189  88.5353700  49.2592597  59.2861464
  89.0552699  48.8835884  60.6574436  90.7331231  55.0489148  58.5004454
  90.9448127  55.6920908  57.8238835  90.6860980  54.2151465  58.0326384
  88.3357460  47.6606969  55.4041026  87.4741939  47.9588223  55.6957764
  88.3619895  47.8777368  54.4722059  85.1519030  56.2049160  51.8114832
  85.6157375  56.4836863  51.0219455  84.8875828  55.3032604  51.6287923
  84.0887916  52.3272312  48.6204397  84.7911959  52.7793356  49.0878324
  83.7568544  51.6856131  49.2484290  82.5368277  50.9184069  62.9955607
  81.9066938  51.6000349  63.2291003  82.4304365  50.8067150  62.0508745
  91.8477059  57.9261104  56.6726812  92.6694503  57.5241291  56.3909493
  91.8439462  57.8229338  57.6242927  85.6133663  57.4745147  58.8287522
  85.6778095  57.9365554  59.6645694  84.9044587  56.8442512  58.9569832
  99.9383052  54.2699852  53.0211783  99.1846761  53.7007250  52.8655787
 100.0730593  54.2362517  53.9682418  85.3281680  59.1413255  48.6966502
  85.1927355  59.9864790  49.1251350  85.8691493  59.3432532  47.9332436
  81.8149020  45.2204834  65.3580858  81.4215966  44.6671033  66.0328502
  82.6315160  45.5315413  65.7487375  84.7316981  46.6362714  62.9501114
  85.4726694  47.2369867  62.8705577  84.9634904  45.8940351  62.3919157
  79.8758319  51.8219081  61.2279344  79.7611834  50.9204338  61.5286443
  79.0202837  52.0682778  60.8764160  86.9550157  59.7636821  62.8266844
  86.5114011  58.9773200  62.5087749  87.6167370  59.9515972  62.1610735
  81.7137278  61.2932623  57.3527523  82.2644703  61.1649686  56.5804517
  80.8748754  61.5927512  57.0022416  89.0531395  60.0439621  60.8548246
  89.0349870  60.8648502  60.3628515  89.9751315  59.9193696  61.0798387
  85.5104449  57.5583751  61.6971754  86.0432786  56.7972039  61.4671062
  84.9818530  57.2657402  62.4395909  88.6774144  42.6643816  57.2265396
  88.3338413  43.5545458  57.1504506  89.0453107  42.4745474  56.3634981
  88.6424427  52.6552428  45.7337831  88.1271050  53.4257032  45.9726218
  88.3701735  51.9817564  46.3570892  86.2271538  47.5002128  50.7923069
  85.3713134  47.1108979  50.6128708  86.6398489  47.5794089  49.9322855
  87.7570684  45.0348472  55.1914629  87.2535480  44.9978607  54.3782434
  88.0501291  45.9441214  55.2511286  84.0013570  45.1187201  54.1980811
  84.8666567  44.9230010  53.8386700  84.0691079  44.8897553  55.1250168
  93.6158701  55.4084782  47.6691004  92.8388144  55.0695942  47.2246167
  94.2950182  55.4137405  46.9945969  88.4310730  50.5279520  47.5597612
  88.1260865  50.8425669  48.4107755  89.3841172  50.6060940  47.6024945
  86.8757162  56.6869743  49.2090566  86.3478523  55.9522503  48.8963804
  86.3744664  57.4644419  48.9630534  91.8550008  54.8818763  54.3257612
  91.1973682  55.5718025  54.4137741  92.6590407  55.2715195  54.6691599
  81.6075889  47.3489409  51.5697178  82.1819641  47.1264591  50.8370371
  82.1946872  47.4178104  52.3225779  90.6655466  53.2363136  52.3761554
  91.1787348  53.8693128  52.8783264  91.3156690  52.6364332  52.0104914
  83.9098557  44.2230658  50.2972247  83.2562969  43.9079675  49.6728862
  83.8679031  43.6006399  51.0232070  85.0209762  54.5049953  42.2125539
  84.1136824  54.2739207  42.4116688  85.5180794  53.7087573  42.3999521
  87.9277841  63.2147460  45.1322225  87.2539539  63.5179157  45.7407183
  88.3143663  64.0176541  44.7827682  87.1436297  50.7112592  54.6219895
  86.2258859  50.9327539  54.4641583  87.5596441  50.7858902  53.7631602
  87.9271345  52.1104007  49.7522575  88.6743164  52.6225405  49.4429697
  88.1962935  51.7888060  50.6126969  86.1997995  54.6062548  46.7349529
  85.2909215  54.3221581  46.8321999  86.2293079  55.0261627  45.8752836
  91.4317263  58.2169138  50.5040697  90.9779590  57.3760048  50.5605887
  90.8011229  58.8530536  50.8415477  90.3750182  49.1461124  51.7341364
  89.6372939  48.6338510  52.0651607  90.6276956  48.7061505  50.9224641
  89.8750202  60.0545634  51.4390515  90.1673176  60.6150691  50.7202881
  90.3848822  60.3474195  52.1943674  90.4761810  41.9237376  52.3283134
  90.7820686  41.0634739  52.0409049  91.2014414  42.5154996  52.1282127
  84.7482889  52.2191169  52.8359325  84.8031499  51.2665005  52.7601801
  83.9374091  52.3750608  53.3200623  85.8974083  56.1471292  44.0737608
  85.4593513  55.4307151  43.6143245  86.6384524  56.3747407  43.5122699
  84.8383827  60.8325985  52.5283968  84.7960006  61.0586832  51.5992500
  85.7546526  60.5989360  52.6769769  88.2849461  51.3010053  59.4264597
  88.6398849  51.5281526  60.2859063  88.9321592  51.6328430  58.8041853
  94.0147198  54.4228489  50.1313926  93.8765096  54.6130085  49.2035116
  93.6583417  55.1847872  50.5881978  94.0416577  56.4905016  55.1425198
  94.4753084  56.3980305  55.9908252  94.7548158  56.4662516  54.5045214
  87.7744472  60.0907110  56.6758298  87.8281495  60.6598046  57.4436014
  86.9059254  60.2608995  56.3112336  94.9032127  56.5328717  57.6758083
  95.0968017  57.4374527  57.9217358  94.8032745  56.0736136  58.5096668
  86.5568438  46.4186607  60.1748411  85.9096353  47.1176557  60.0812887
  87.3269453  46.8522751  60.5424659  89.9647236  56.6835459  63.2498964
  89.8132742  56.4546011  62.3329048  89.9551915  57.6406061  63.2630309
  86.7332572  54.2567372  58.2345230  87.6624632  54.4078532  58.0614198
  86.3123602  54.3451393  57.3793877  85.5320904  58.2818036  56.0043768
  85.3931990  57.9136821  56.8769706  84.7435500  58.7965676  55.8327726
  86.1269056  63.3827133  47.3469304  86.3020812  62.9115176  48.1614927
  85.4401844  64.0092899  47.5750565  87.0826119  57.6599639  53.3932606
  86.7475952  57.6200409  54.2890256  86.5830065  56.9944355  52.9203016
  90.0185311  55.0055673  43.6669665  89.4014481  54.2802502  43.5702718
  89.5501799  55.7665034  43.3236740  83.6852664  52.7787228  58.4068867
  84.3952282  52.1380421  58.3655485  83.6421972  53.0300123  59.3295047
  91.6739442  59.7154582  61.3275446  91.6151988  59.0313802  60.6606029
  92.0758961  60.4573572  60.8756072  82.3981598  49.7652446  60.2264506
  81.8618955  49.3143185  60.8786102  81.8098306  49.8998355  59.4834970
  80.6930141  66.5316496  54.1209165  80.9326739  67.1635020  54.7988183
  79.8499338  66.1804536  54.4074524  91.6756850  57.6794166  59.5589425
  90.7883628  57.3420088  59.6815824  92.2455401  56.9477197  59.7958191
  85.2058003  62.3395618  56.5250669  85.1328174  63.1450590  57.0369973
  84.7635396  62.5387584  55.6998690  84.9947783  61.5767388  50.0353490
  84.2115305  62.1189068  50.1291715  85.6940528  62.0941368  50.4347731
  88.3044433  47.3862018  52.6787696  88.8013132  46.6331980  52.3588766
  87.5331414  47.4226334  52.1130905  96.1574190  53.0902383  54.3205987
  96.1464066  53.9727099  53.9499920  95.2891570  52.7373934  54.1260524
  87.6656687  62.2382452  58.6808827  88.3784659  62.8729917  58.6084729
  87.1746715  62.3346318  57.8648829  89.3874213  56.1433705  50.2526119
  88.4530492  56.2635167  50.0830823  89.5650882  55.2406172  49.9886129
  84.8879401  49.5279401  52.4059380  84.5177189  48.9750441  53.0940286
  85.3838494  48.9237534  51.8534380  92.7746765  51.9851024  50.7876153
  93.2407217  52.8179016  50.7136456  93.2254265  51.5196006  51.4921412
  82.7168600  59.9876896  59.5014398  83.4178060  60.6213379  59.6543792
  82.2463715  60.3291627  58.7410037  90.8422996  58.3294845  47.7862305
  91.1182840  58.2151440  48.6956179  89.9727495  57.9312330  47.7474478
  90.7463428  44.3531611  54.8267054  89.8326507  44.5835838  54.9949261
  91.1756529  44.4370055  55.6781087  90.5169886  52.5421503  57.3266948
  89.8641336  52.7897410  56.6719401  90.8950266  51.7285641  56.9929426
  87.4777060  62.5781196  51.4295119  87.6599454  61.7602852  51.8922871
  88.3010046  62.7948888  50.9920009  87.8119225  61.5049381  48.6910167
  88.3406992  60.9941836  48.0780329  88.0747445  61.1891912  49.5555700
  86.5657459  53.2841314  63.8132986  85.8898096  53.1835443  64.4835361
  87.3885093  53.1280528  64.2768983  85.3080242  64.5908242  58.0490602
  85.8598550  64.7539863  58.8139687  85.6486435  65.1812679  57.3770626
  80.2844735  46.9383391  58.6512486  80.3486062  47.7998222  58.2389884
  80.2211855  46.3257393  57.9184845  79.7597008  49.0106524  62.2985521
  80.3869046  48.6283601  62.9123045  78.9024927  48.7920726  62.6641213
  90.1591116  59.4169499  63.9039256  90.7031020  60.0299457  63.4094211
  89.5777961  59.9749077  64.4206269  88.4448629  62.5390217  55.0354284
  88.3199769  61.7379957  54.5265229  89.1027720  63.0336410  54.5468254
  90.5083538  60.3399237  56.6633834  89.5613873  60.2204588  56.5912161
  90.8566311  59.4521735  56.7460095  82.8683111  46.2293376  60.4872076
  83.3917513  46.4755673  61.2498385  82.6495444  47.0613411  60.0675213
  87.5129971  60.1351953  52.8638186  87.3654933  59.2068661  53.0445756
  88.3383464  60.1572044  52.3795261  91.1164093  60.9580512  53.9503059
  92.0410640  60.7523373  53.8127510  90.9479396  60.7096913  54.8592400
  84.0735656  47.1707071  58.1721746  83.7332476  46.3714884  58.5742426
  83.3674662  47.4708782  57.5998579  84.7252128  44.2556384  56.6249069
  85.5478197  43.7816862  56.5027960  84.9690191  45.0346867  57.1247756
  83.3660362  47.2844642  46.9211971  84.0868725  47.6625895  46.4175688
  82.7425666  48.0033519  47.0246949  87.5091485  47.9889791  47.8570303
  87.7255100  48.8714429  47.5559131  87.0285552  47.5976004  47.1275945
  84.1087089  47.9378052  54.4821937  84.0948658  47.0419146  54.1454235
  84.8259518  47.9448716  55.1160223  85.9613220  48.3715392  56.5275065
  85.7030998  49.2932463  56.5259395  85.4298261  47.9745827  57.2175529
  90.9059409  61.4766180  49.3065150  91.0796286  60.9112602  48.5539003
  91.3988300  62.2767074  49.1244640  83.5123985  46.8192433  49.7509508
  83.6339897  45.8909079  49.9500395  83.2226028  46.8331118  48.8387823
  86.3815176  44.5047343  52.8876227  86.4036873  44.5686676  51.9328207
  86.7983235  43.6651852  53.0816734  96.7598800  54.2402602  50.9255450
  97.2029946  53.4909928  50.5274573  95.8825310  54.2312739  50.5429182
  91.8934581  60.7932944  46.4062049  92.5885486  61.4139637  46.6249363
  92.2357732  59.9428295  46.6814426  93.7926005  58.2432649  47.9349379
  94.3177329  58.5819922  47.2098699  93.7048357  57.3079665  47.7512514
  85.4546053  62.1566723  60.0639256  85.7633180  61.9115870  60.9361956
  86.2521535  62.3613362  59.5758126  85.4766665  64.3104633  52.2944632
  85.0371656  63.8181011  52.9877489  86.2274782  63.7677600  52.0536708
  82.9965065  48.3324430  63.9599440  83.0453220  49.2086553  63.5777210
  83.5387579  47.7901823  63.3871083  93.4819911  58.8765553  63.2400577
  92.6915454  58.8589692  62.7005077  93.2453265  59.4153847  63.9949614
  93.6017786  55.7258019  60.5533306  93.6515791  55.5608027  61.4948829
  93.4931709  54.8585279  60.1631187  90.8921548  51.7088948  61.8692612
  91.7931411  51.5695412  61.5776610  90.9669523  51.8743402  62.8090790
  85.2264353  49.0855802  60.7145799  84.3567663  49.3789368  60.4428387
  85.4623834  49.6696247  61.4353062  95.1035982  58.1454961  60.7975327
  94.8120791  58.5084942  61.6338788  94.4908114  57.4321969  60.6188659
  96.3031665  55.7107841  53.3177898  97.1378556  56.1497645  53.4815458
  96.4390794  55.2346494  52.4986143  93.3523171  53.2687576  59.2655385
  93.8277292  53.4615222  58.4574237  92.4288736  53.3246761  59.0198769
  87.9303387  45.3035419  58.2311219  88.4485331  46.0396446  57.9057708
  87.5758520  45.6099412  59.0657978  88.1815981  41.7235702  53.7512116
  88.4617735  41.0558891  54.3772542  88.9666588  41.9164797  53.2386780
  85.9849450  60.8994696  45.3137142  85.4123417  61.5184883  44.8607614
  86.5582244  61.4494057  45.8477064  92.0524840  50.1453336  57.4983691
  93.0042263  50.2451433  57.5195915  91.8828290  49.3531604  58.0081775
  90.0739219  47.2308919  57.6843092  89.4789151  47.5113932  56.9889580
  89.7888916  47.7202820  58.4559833  89.2046710  61.1831846  46.4445724
  90.1377383  61.1177407  46.6478600  89.1169922  62.0188113  45.9860257
  91.8334726  60.4997716  43.4049672  91.7548358  60.1657580  44.2985430
  92.6544393  60.9919484  43.4041144  94.5312918  53.3659455  56.6125991
  94.4989238  52.4275456  56.7985674  95.1413541  53.4443492  55.8791815
  86.3696248  52.2355508  42.6553195  87.3155353  52.1061716  42.7241613
  85.9910493  51.4970170  43.1322623  94.6807406  50.1570499  56.6584274
  94.1646455  49.3728955  56.4714203  95.5647355  49.8289215  56.8230793
  92.3418133  43.9011514  52.6180086  92.1442954  43.5926603  53.5023418
  92.9517838  44.6273153  52.7478016 100.3489467  54.4275462  55.7532027
 101.0792856  54.1660750  56.3139731  99.7396413  53.6904184  55.7934095
  98.4304764  52.5683325  56.3506479  97.7037928  52.4339290  55.7422970
  98.0152051  52.8760153  57.1563197  86.2534941  56.2873255  64.1153852
  87.1737950  56.4651854  64.3093898  86.2184524  55.3429300  63.9633551
  84.5539166  50.1605485  42.5908080  83.6470621  49.8638597  42.6670793
  84.8315147  49.8635303  41.7242366  86.1701231  44.7042374  48.7452321
  85.3601960  44.3589459  49.1207567  86.8585648  44.3949918  49.3339933
  88.0991780  43.7820421  50.3676618  88.6522818  44.2015875  51.0266641
  88.3361866  42.8556169  50.4099574  84.1224879  49.7707495  66.1479382
  84.0221606  50.7201852  66.0791473  83.9046421  49.4425734  65.2755452
  83.3237950  47.0192420  42.7320059  84.1857114  47.3447318  42.9915876
  83.5088294  46.2323916  42.2193125  91.4770587  45.8920946  49.8755282
  90.8969256  46.5505750  49.4933334  91.2106519  45.0698291  49.4642700
  89.9274153  45.2926004  52.0776602  90.4273931  45.4042539  51.2690921
  90.5709761  44.9887057  52.7177411  83.9856149  53.2004634  64.9644443
  83.5023231  54.0004994  65.1708332  84.0717088  53.2112579  64.0111887
  90.2595465  48.0521037  48.9311630  89.3721320  48.3370687  48.7131825
  90.6749454  47.8914800  48.0838907  93.6110001  48.0767558  52.6465970
  94.3870391  48.5664010  52.9190586  92.8858135  48.5025612  53.1037839
  96.0482559  48.7895177  53.7039910  96.6427050  48.5490913  52.9933218
  96.1209143  48.0702308  54.3313446  89.4038678  57.8165712  43.0259650
  90.1074528  58.0215714  43.6417306  88.6801327  58.3842473  43.2908734
  90.2336488  53.5675573  49.1461920  90.1771690  54.0244124  48.3069553
  90.7864831  52.8066257  48.9684763  94.0441294  49.3565305  49.9712040
  93.7878229  48.9561940  50.8020248  93.4194162  50.0709099  49.8462179
  98.3553632  52.0961378  52.4783331  97.7953190  52.1654567  53.2514893
  97.7497136  51.9202363  51.7582828  81.4248841  63.5298105  54.2301518
  81.3081225  64.4743537  54.1280208  80.6041287  63.2271667  54.6187317
  91.3125376  58.2548241  45.0758110  92.1470979  57.8229439  44.8935585
  91.1509718  58.0830254  46.0035005  90.9671268  54.7580354  46.4414450
  90.9120071  54.5924625  45.5002894  90.3417323  55.4656387  46.5976639
  88.2817175  57.0629266  65.7668012  89.1508335  57.2369918  65.4054647
  87.8023926  57.8823683  65.6443742  84.2767393  44.2588463  46.0199768
  84.2646063  45.2030303  46.1768039  85.1690815  44.0758608  45.7259229
  82.4503355  64.1826367  57.4457446  83.3530602  64.2149977  57.7623941
  82.2240725  63.2526818  57.4603782  84.2056957  62.9357353  54.1067525
  83.2552588  62.9359215  53.9931897  84.5089443  62.1890088  53.5903559
  88.0919513  40.8531240  50.2745705  87.3251908  40.2989726  50.4202387
  88.5030218  40.9253108  51.1359856  80.0961274  47.1416035  64.3650886
  80.9592735  46.7852840  64.5754211  79.5226684  46.8029930  65.0526290
  99.9409651  68.7717892  55.1713287 100.5788061  68.6524639  54.4676627
  99.8230494  69.7198736  55.2301239  96.7499357  68.7245320  55.1074812
  96.4117868  68.6086385  54.2195347  97.6189125  68.3236485  55.0875818
  92.6086173  70.5780796  51.0971703  92.0451038  70.4870733  50.3287990
  92.4938568  69.7580701  51.5774195  97.2319140  69.8780172  61.0661017
  97.2207781  69.4832970  60.1941521  97.3939779  69.1446244  61.6594789
  90.1550605  72.0731988  53.9355923  90.9471896  71.7322813  53.5202222
  90.3947255  72.1826963  54.8558076  98.1885731  74.2451764  46.4086168
  97.5373711  74.8305844  46.0220181  98.9830094  74.7757959  46.4681205
  92.1141358  71.3340901  46.8073302  92.8872234  70.7869888  46.6686178
  92.4666757  72.1985151  47.0187763  93.9526401  72.6617283  60.0140201
  93.6616267  73.5662914  59.8986868  94.5883385  72.7033811  60.7284271
  94.8782608  70.0394132  56.6041561  95.4746180  69.8150154  55.8898524
  94.9357579  69.2978877  57.2067009  94.4507636  67.4933567  44.4391752
  94.7033157  66.9715089  43.6775215  93.5132195  67.3299713  44.5418435
  99.4950919  66.4969346  52.2466495 100.2814008  66.0788769  51.8956912
  99.7589623  67.4015438  52.4148144  99.6660996  71.9342196  46.9455152
  99.0306829  72.0076823  47.6576057  99.3358403  72.5235795  46.2674231
 104.8959346  66.4344579  53.1499474 105.6284518  65.8643796  53.3837303
 104.1398702  66.0466179  53.5905979  94.1703925  69.3961673  46.6416127
  94.0540183  68.7206577  47.3097211  94.2806185  68.9094047  45.8248280
  96.5135466  68.8571820  50.3462816  96.1493673  68.3302441  51.0575738
  97.3702582  68.4670289  50.1729301 102.4184767  60.1466153  57.6094082
 102.0868091  61.0161564  57.3855297 101.8230380  59.8302437  58.2888113
  96.1540953  63.8861720  45.3424165  96.3215355  64.7541956  45.7094636
  95.9638122  64.0489002  44.4185454  98.9116286  72.3478699  57.0089995
  98.6117009  73.2503738  56.9005802  98.5667346  72.0810882  57.8611148
  92.3628768  68.7992496  53.0426699  91.4379264  68.6668710  53.2504391
  92.6113181  69.5786715  53.5396642 102.3113430  64.8661239  54.6887432
 101.4030307  64.7976648  54.3946193 102.2601026  65.3433184  55.5169258
  96.1330174  66.3419378  46.3270831  96.0129799  66.7876428  47.1656312
  95.4382762  66.6904695  45.7684370  89.7237579  68.4425769  53.8770488
  89.8529960  68.6960248  54.7909900  89.0435030  69.0353477  53.5575144
  93.8937066  79.1123019  49.9760963  93.8161096  80.0630844  50.0549443
  93.2898709  78.7668892  50.6335889  96.3854296  66.2850885  62.6322330
  95.6087630  66.8444805  62.6225194  97.0244859  66.7707668  63.1537200
 104.1775076  63.0677678  56.4665306 103.5349457  63.3610211  55.8205101
 103.6730005  62.9530598  57.2718503 101.8315240  66.8140851  47.1551165
 102.7433096  67.0468238  46.9798863 101.3224887  67.3977895  46.5926244
  94.6400668  69.0936338  62.1940297  95.3815352  69.6321382  61.9175120
  93.9337653  69.7202627  62.3511848 100.1156008  71.2365479  60.7912458
 100.5239364  70.7947889  60.0467090  99.3933269  70.6618106  61.0446651
  96.4687078  66.1738085  58.1646015  97.3148273  66.5977499  58.3080664
  96.4085715  65.5171710  58.8584578 100.4384822  71.7966669  54.5464747
  99.8093685  71.9612383  53.8440815 100.0510484  72.2108279  55.3175711
 104.3174054  72.7321107  51.9009111 103.6325092  73.1120008  51.3506144
 104.4017903  73.3416434  52.6341058  99.6186523  63.8342454  59.8227189
  99.3747455  64.5884514  59.2861464  99.8946454  64.2127801  60.6574436
 101.5724986  70.3781066  58.5004454 101.7841881  71.0212826  57.8238835
 101.5254734  69.5443383  58.0326384  99.1751215  62.9898887  55.4041026
  98.3135694  63.2880140  55.6957764  99.2013649  63.2069286  54.4722059
  95.9912784  71.5341077  51.8114832  96.4551130  71.8128780  51.0219455
  95.7269582  70.6324522  51.6287923  92.8836865  71.0812559  54.7494595
  93.4538222  71.5099827  54.1112080  93.4744977  70.7995144  55.4478781
  94.9281670  67.6564230  48.6204397  95.6305714  68.1085273  49.0878324
  94.5962299  67.0148049  49.2484290  93.3762032  66.2475986  62.9955607
  92.7460692  66.9292267  63.2291003  93.2698120  66.1359068  62.0508745
  88.6707004  65.9147782  53.9221531  87.8806058  66.1705311  53.4461641
  89.1618252  66.7296120  54.0273571 102.6870814  73.2553022  56.6726812
 103.5088257  72.8533209  56.3909493 102.6833217  73.1521256  57.6242927
  90.6221750  66.2792362  50.8805007  89.8252913  66.3911056  51.3988503
  90.3947342  66.6179014  50.0145898  96.4527417  72.8037065  58.8287522
  96.5171850  73.2657472  59.6645694  95.7438341  72.1734430  58.9569832
  86.9544707  66.1678273  56.3536522  87.2052746  67.0525283  56.6194097
  87.4904256  65.9882874  55.5811613  96.1675435  74.4705172  48.6966502
  96.0321110  75.3156708  49.1251350  96.7085247  74.6724450  47.9332436
  92.6542774  60.5496752  65.3580858  92.2609720  59.9962951  66.0328502
  93.4708915  60.8607331  65.7487375  89.6204832  71.9880610  49.2694427
  90.1329353  72.7823861  49.4199992  90.2727545  71.2906901  49.2028029
  91.4299717  75.1046367  51.3517181  91.6066345  76.0264331  51.1638165
  92.2256550  74.7904786  51.7811560  95.5710735  61.9654631  62.9501114
  96.3120449  62.5661784  62.8705577  95.8028658  61.2232269  62.3919157
  90.7152073  67.1510998  61.2279344  90.6005589  66.2496256  61.5286443
  89.8596591  67.3974695  60.8764160  97.7943911  75.0928739  62.8266844
  97.3507765  74.3065117  62.5087749  98.4561125  75.2807889  62.1610735
  92.5531032  76.6224540  57.3527523  93.1038457  76.4941604  56.5804517
  91.7142508  76.9219429  57.0022416  99.8925149  75.3731539  60.8548246
  99.8743625  76.1940420  60.3628515 100.8145069  75.2485614  61.0798387
  96.3498203  72.8875668  61.6971754  96.8826540  72.1263956  61.4671062
  95.8212285  72.5949320  62.4395909  99.5167898  57.9935734  57.2265396
  99.1732168  58.8837376  57.1504506  99.8846861  57.8037392  56.3634981
  87.5853749  70.3169265  50.0453998  88.4228971  70.7266273  49.8287706
  87.7632017  69.3768707  50.0154192  99.4818181  67.9844345  45.7337831
  98.9664805  68.7548950  45.9726218  99.2095490  67.3109481  46.3570892
  97.0665292  62.8294046  50.7923069  96.2106888  62.4400896  50.6128708
  97.4792244  62.9086007  49.9322855  98.5964439  60.3640389  55.1914629
  98.0929234  60.3270524  54.3782434  98.8895046  61.2733132  55.2511286
  94.8407325  60.4479119  54.1980811  95.7060321  60.2521928  53.8386700
  94.9084834  60.2189471  55.1250168 104.4552455  70.7376700  47.6691004
 103.6781898  70.3987859  47.2246167 105.1343936  70.7429323  46.9945969
  99.2704484  65.8571437  47.5597612  98.9654620  66.1717587  48.4107755
 100.2234926  65.9352857  47.6024945  97.7150916  72.0161661  49.2090566
  97.1872278  71.2814420  48.8963804  97.2138419  72.7936337  48.9630534
 102.6943762  70.2110681  54.3257612 102.0367437  70.9009943  54.4137741
 103.4984161  70.6007113  54.6691599  92.4469644  62.6781327  51.5697178
  93.0213396  62.4556508  50.8370371  93.0340626  62.7470021  52.3225779
 101.5049221  68.5655054  52.3761554 102.0181103  69.1985046  52.8783264
 102.1550445  67.9656249  52.0104914  92.7739231  64.7085788  45.5893063
  91.9376543  65.0460475  45.9102338  92.6344000  64.5734768  44.6520200
  94.7492311  59.5522576  50.2972247  94.0956724  59.2371593  49.6728862
  94.7072786  58.9298316  51.0232070  95.8603516  69.8341871  42.2125539
  94.9530578  69.6031124  42.4116688  96.3574548  69.0379490  42.3999521
  98.7671595  78.5439378  45.1322225  98.0933294  78.8471075  45.7407183
  99.1537417  79.3468458  44.7827682  97.9830052  66.0404509  54.6219895
  97.0652613  66.2619456  54.4641583  98.3990195  66.1150820  53.7631602
  98.7665100  67.4395925  49.7522575  99.5136919  67.9517322  49.4429697
  99.0356689  67.1179978  50.6126969  97.0391750  69.9354466  46.7349529
  96.1302969  69.6513499  46.8321999  97.0686834  70.3553544  45.8752836
 102.2711017  73.5461055  50.5040697 101.8173344  72.7051965  50.5605887
 101.6404984  74.1822454  50.8415477 101.2143937  64.4753041  51.7341364
 100.4766694  63.9630428  52.0651607 101.4670710  64.0353423  50.9224641
 100.7143956  75.3837552  51.4390515 101.0066931  75.9442609  50.7202881
 101.2242577  75.6766113  52.1943674 101.3155564  57.2529293  52.3283134
 101.6214441  56.3926657  52.0409049 102.0408169  57.8446914  52.1282127
  87.6079920  67.6559980  50.7164731  87.4104320  67.0629341  49.9915798
  87.0526584  67.3512190  51.4340670  95.5876644  67.5483086  52.8359325
  95.6425254  66.5956923  52.7601801  94.7767846  67.7042526  53.3200623
  96.7367838  71.4763209  44.0737608  96.2987267  70.7599068  43.6143245
  97.4778278  71.7039324  43.5122699  93.5269004  66.1660146  50.5949703
  92.7136869  66.4654317  51.0014896  94.0227998  65.7715835  51.3124186
  95.6777582  76.1617903  52.5283968  95.6353760  76.3878749  51.5992500
  96.5940280  75.9281278  52.6769769  99.1243215  66.6301971  59.4264597
  99.4792603  66.8573444  60.2859063  99.7715347  66.9620347  58.8041853
 104.8540952  69.7520407  50.1313926 104.7158851  69.9422002  49.2035116
 104.4977171  70.5139789  50.5881978  93.0183078  63.7378502  56.2110938
  93.6582458  63.5967261  55.5133902  92.1860609  63.4513015  55.8349540
 104.8810332  71.8196934  55.1425198 105.3146839  71.7272223  55.9908252
 105.5941913  71.7954434  54.5045214  93.7943382  73.0380932  52.3245931
  94.5883981  72.5431252  52.1228506  93.0835075  72.5098795  51.9613636
  98.6138227  75.4199028  56.6758298  98.6675249  75.9889964  57.4436014
  97.7453008  75.5900913  56.3112336  90.1026146  67.1824014  48.4005684
  89.1723734  67.1208469  48.6175646  90.1983618  66.6599967  47.6042325
  90.0211695  63.7078827  50.9883925  90.2818512  64.6224160  50.8793086
  90.8428867  63.2403269  51.1380538  91.4936620  65.1216584  58.1582750
  92.1659674  64.9133946  57.5095399  90.6666407  64.9238670  57.7187982
 105.7425882  71.8620634  57.6758083 105.9361772  72.7666445  57.9217358
 105.6426500  71.4028053  58.5096668  97.3962192  61.7478525  60.1748411
  96.7490107  62.4468474  60.0812887  98.1663208  62.1814669  60.5424659
 100.8040990  72.0127377  63.2498964 100.6526497  71.7837929  62.3329048
 100.7945670  72.9697978  63.2630309  97.5726327  69.5859290  58.2345230
  98.5018387  69.7370449  58.0614198  97.1517357  69.6743310  57.3793877
  96.3714658  73.6109954  56.0043768  96.2325744  73.2428738  56.8769706
  95.5829255  74.1257594  55.8327726  96.9662810  78.7119051  47.3469304
  97.1414566  78.2407094  48.1614927  96.2795598  79.3384817  47.5750565
  97.9219874  72.9891557  53.3932606  97.5869706  72.9492327  54.2890256
  97.4223819  72.3236273  52.9203016  91.8964117  68.3959187  58.9185187
  91.7583915  67.6639426  59.5196726  92.8069041  68.3068087  58.6369375
 100.8579065  70.3347591  43.6669665 100.2408236  69.6094419  43.5702718
 100.3895554  71.0956951  43.3236740  94.5246418  68.1079146  58.4068867
  95.2346037  67.4672338  58.3655485  94.4815726  68.3592041  59.3295047
 102.5133197  75.0446499  61.3275446 102.4545743  74.3605720  60.6606029
 102.9152715  75.7865489  60.8756072  93.2375352  65.0944364  60.2264506
  92.7012709  64.6435102  60.8786102  92.6492061  65.2290273  59.4834970
  91.5323896  81.8608413  54.1209165  91.7720494  82.4926937  54.7988183
  90.6893092  81.5096453  54.4074524  92.6477611  64.5533015  42.7890970
  91.7707077  64.4321816  42.4253216  93.1235364  63.7619094  42.5369858
 102.5150604  73.0086083  59.5589425 101.6277383  72.6712005  59.6815824
 103.0849155  72.2769115  59.7958191  84.1679751  69.3410175  52.8832477
  84.8550791  69.0271905  52.2953492  84.0127880  70.2451540  52.6099728
  88.9714473  64.2300372  57.3117501  88.8872662  63.6226041  56.5767910
  88.1497180  64.7209390  57.3126997  96.0451757  77.6687536  56.5250669
  95.9721929  78.4742507  57.0369973  95.6029151  77.8679502  55.6998690
  95.8341537  76.9059306  50.0353490  95.0509059  77.4480986  50.1291715
  96.5334282  77.4233285  50.4347731  99.1438187  62.7153935  52.6787696
  99.6406887  61.9623898  52.3588766  98.3725169  62.7518252  52.1130905
  98.5050441  77.5674370  58.6808827  99.2178413  78.2021835  58.6084729
  98.0140470  77.6638236  57.8648829 100.2267968  71.4725622  50.2526119
  99.2924247  71.5927085  50.0830823 100.4044636  70.5698089  49.9886129
  95.7273156  64.8571318  52.4059380  95.3570943  64.3042359  53.0940286
  96.2232248  64.2529452  51.8534380 103.6140519  67.3142942  50.7876153
 104.0800971  68.1470933  50.7136456 104.0648020  66.8487923  51.4921412
  93.5562355  75.3168813  59.5014398  94.2571814  75.9505296  59.6543792
  93.0857470  75.6583545  58.7410037 101.6816750  73.6586763  47.7862305
 101.9576594  73.5443358  48.6956179 100.8121249  73.2604248  47.7474478
 101.5857182  59.6823529  54.8267054 100.6720262  59.9127756  54.9949261
 102.0150283  59.7661973  55.6781087 101.3563641  67.8713421  57.3266948
 100.7035091  68.1189328  56.6719401 101.7344020  67.0577559  56.9929426
  98.3170814  77.9073114  51.4295119  98.4993209  77.0894770  51.8922871
  99.1403800  78.1240806  50.9920009  98.6512980  76.8341299  48.6910167
  99.1800746  76.3233754  48.0780329  98.9141199  76.5183829  49.5555700
  97.4051214  68.6133232  63.8132986  96.7291851  68.5127361  64.4835361
  98.2278847  68.4572446  64.2768983  89.1530073  74.8505168  56.4345501
  89.7383509  74.1048856  56.5673405  88.9554911  75.1609125  57.3182165
  92.0068728  77.8856416  51.4507943  91.3379103  78.3702543  50.9671983
  91.8681598  78.1325636  52.3651322  83.7447727  67.4210769  55.1549944
  83.7831827  66.8874359  55.9487062  83.2388020  66.8945974  54.5360921
  96.1473996  79.9200159  58.0490602  96.6992304  80.0831781  58.8139687
  96.4880190  80.5104597  57.3770626  91.1238490  62.2675309  58.6512486
  91.1879816  63.1290140  58.2389884  91.0605610  61.6549311  57.9184845
  90.5990762  64.3398442  62.2985521  91.2262801  63.9575519  62.9123045
  89.7418681  64.1212643  62.6641213 100.9984871  74.7461417  63.9039256
 101.5424775  75.3591375  63.4094211 100.4171716  75.3040995  64.4206269
  87.3756305  66.1474871  48.2303875  87.6709746  65.2385549  48.1770929
  86.4744341  66.1262610  47.9084878  99.2842384  77.8682135  55.0354284
  99.1593523  77.0671875  54.5265229  99.9421475  78.3628328  54.5468254
  90.9050552  64.2230867  54.2131424  90.1837138  64.8366835  54.0738897
  91.6943808  64.7588632  54.1348070 101.3477292  75.6691155  56.6633834
 100.4007628  75.5496506  56.5912161 101.6960065  74.7813653  56.7460095
  93.7076865  61.5585294  60.4872076  94.2311267  61.8047590  61.2498385
  93.4889199  62.3905329  60.0675213  89.1044147  63.8288968  48.3543201
  88.7756853  62.9486347  48.1718306  89.4583517  63.7736637  49.2419590
  98.3523725  75.4643871  52.8638186  98.2048688  74.5360578  53.0445756
  99.1777219  75.4863962  52.3795261  92.2185970  64.1161938  48.7218678
  92.5582042  64.6447859  47.9997287  92.6658090  64.4542344  49.4977245
 101.9557847  76.2872430  53.9503059 102.8804395  76.0815291  53.8127510
 101.7873151  76.0388831  54.8592400  94.9129410  62.4998989  58.1721746
  94.5726231  61.7006802  58.5742426  94.2068417  62.8000700  57.5998579
  95.5645882  59.5848301  56.6249069  96.3871952  59.1108779  56.5027960
  95.8083946  60.3638785  57.1247756  94.2054117  62.6136560  46.9211971
  94.9262479  62.9917813  46.4175688  93.5819421  63.3325437  47.0246949
  98.3485240  63.3181709  47.8570303  98.5648854  64.2006347  47.5559131
  97.8679307  62.9267922  47.1275945  93.0884461  66.2767422  54.4341048
  92.9429042  66.5907725  55.3265329  92.6109665  66.8952322  53.8811947
  94.9480844  63.2669970  54.4821937  94.9342413  62.3711063  54.1454235
  95.6653272  63.2740634  55.1160223  96.8006975  63.7007310  56.5275065
  96.5424752  64.6224381  56.5259395  96.2692015  63.3037745  57.2175529
 101.7453163  76.8058097  49.3065150 101.9190041  76.2404520  48.5539003
 102.2382055  77.6058992  49.1244640  87.5630123  68.8172766  57.3728709
  87.0183591  69.5932574  57.5048983  88.4409473  69.1643571  57.2147830
  94.3517740  62.1484350  49.7509508  94.4733651  61.2200996  49.9500395
  94.0619782  62.1623036  48.8387823  97.2208930  59.8339261  52.8876227
  97.2430627  59.8978594  51.9328207  97.6376989  58.9943769  53.0816734
 102.7328336  76.1224862  46.4062049 103.4279241  76.7431554  46.6249363
 103.0751486  75.2720213  46.6814426  88.3496145  67.9442663  60.2658866
  87.6077881  68.0925298  60.8523496  88.0288889  68.2050928  59.4025615
 104.6319759  73.5724567  47.9349379 105.1571083  73.9111840  47.2098699
 104.5442112  72.6371582  47.7512514  96.2939808  77.4858641  60.0639256
  96.6026934  77.2407788  60.9361956  97.0915290  77.6905279  59.5758126
  96.3160420  79.6396550  52.2944632  95.8765410  79.1472929  52.9877489
  97.0668537  79.0969518  52.0536708  88.7952759  75.8308091  52.2969261
  89.6210779  75.5311863  51.9167904  88.4446811  75.0615714  52.7459049
  93.7634292  75.1834560  54.3666934  93.1414301  74.5205265  54.0669162
  94.4339159  75.2095691  53.6840582  86.9961364  73.7494418  53.2558194
  86.1593272  73.3216592  53.0742195  86.9685009  73.9426861  54.1928985
  93.8358819  63.6616348  63.9599440  93.8846975  64.5378470  63.5777210
  94.3781334  63.1193741  63.3871083 104.3213665  74.2057471  63.2400577
 103.5309209  74.1881610  62.7005077 104.0847020  74.7445764  63.9949614
 104.4411540  71.0549937  60.5533306 104.4909545  70.8899945  61.4948829
 104.3325463  70.1877196  60.1631187  93.3247799  73.7338483  47.8425395
  93.4735919  74.4173947  47.1892067  94.1314242  73.7143573  48.3574850
 101.7315303  67.0380865  61.8692612 102.6325165  66.8987330  61.5776610
 101.8063277  67.2035320  62.8090790  96.0658108  64.4147720  60.7145799
  95.1961417  64.7081286  60.4428387  96.3017588  64.9988165  61.4353062
 105.9429737  73.4746879  60.7975327 105.6514545  73.8376859  61.6338788
 105.3301868  72.7613887  60.6188659 104.1916925  68.5979493  59.2655385
 104.6671047  68.7907140  58.4574237 103.2682491  68.6538679  59.0198769
  91.0800432  69.7603661  48.8486464  90.8346474  68.8565990  49.0466674
  91.2496346  69.7620811  47.9065942  98.7697142  60.6327337  58.2311219
  99.2879086  61.3688364  57.9057708  98.4152274  60.9391330  59.0657978
  90.3496079  65.4932018  46.3472625  89.6565324  65.5676373  45.6912661
  90.1047831  64.7292362  46.8694142  99.0209736  57.0527619  53.7512116
  99.3011490  56.3850808  54.3772542  99.8060343  57.2456715  53.2386780
  96.8243204  76.2286613  45.3137142  96.2517171  76.8476800  44.8607614
  97.3975998  76.7785975  45.8477064 102.8918594  65.4745253  57.4983691
 103.8436017  65.5743351  57.5195915 102.7222045  64.6823522  58.0081775
 100.9132974  62.5600837  57.6843092 100.3182906  62.8405849  56.9889580
 100.6282670  63.0494738  58.4559833 100.0440464  76.5123763  46.4445724
 100.9771137  76.4469325  46.6478600  99.9563677  77.3480030  45.9860257
 102.6728481  75.8289634  43.4049672 102.5942112  75.4949497  44.2985430
 103.4938148  76.3211402  43.4041144 105.3706672  68.6951373  56.6125991
 105.3382992  67.7567374  56.7985674 105.9807296  68.7735410  55.8791815
  97.2090003  67.5647426  42.6553195  98.1549108  67.4353634  42.7241613
  96.8304248  66.8262088  43.1322623 105.5201160  65.4862417  56.6584274
 105.0040209  64.7020873  56.4714203 106.4041109  65.1581133  56.8230793
 103.1811887  59.2303432  52.6180086 102.9836709  58.9218520  53.5023418
 103.7911593  59.9565071  52.7478016  97.0928695  71.6165172  64.1153852
  98.0131705  71.7943771  64.3093898  97.0578278  70.6721218  63.9633551
  95.3932920  65.4897402  42.5908080  94.4864375  65.1930515  42.6670793
  95.6708901  65.1927221  41.7242366  86.3110860  66.8103766  53.0407126
  85.9913645  65.9569074  52.7481500  85.7644289  67.0252344  53.7965094
  90.0890768  69.5266207  56.7576633  90.3076778  70.4583315  56.7764667
  90.5016542  69.1674181  57.5431437  97.0094986  60.0334292  48.7452321
  96.1995714  59.6881377  49.1207567  97.6979403  59.7241836  49.3339933
  98.9385534  59.1112339  50.3676618  99.4916573  59.5307792  51.0266641
  99.1755620  58.1848087  50.4099574  94.9618633  65.0999413  66.1479382
  94.8615360  66.0493770  66.0791473  94.7440175  64.7717652  65.2755452
  94.1631705  62.3484338  42.7320059  95.0250869  62.6739236  42.9915876
  94.3482049  61.5615834  42.2193125  86.1799120  70.4306677  55.0100248
  85.4862592  70.0160630  54.4970202  86.9272111  70.4727214  54.4133667
 102.3164341  61.2212864  49.8755282 101.7363010  61.8797668  49.4933334
 102.0500274  60.3990209  49.4642700 100.7667907  60.6217922  52.0776602
 101.2667686  60.7334456  51.2690921 101.4103515  60.3178975  52.7177411
  94.8249903  68.5296551  64.9644443  94.3416985  69.3296912  65.1708332
  94.9110842  68.5404496  64.0111887  88.0935863  70.3624931  52.8866263
  88.0706551  70.4612618  51.9348146  88.4036499  71.2090082  53.2083429
  90.7523241  72.4201086  57.0012877  91.7066494  72.3885028  56.9342809
  90.5535764  71.9591710  57.8163103  91.3422623  70.9902202  59.5683675
  92.1615512  71.4846281  59.5918512  91.6159431  70.0734170  59.5401242
 101.0989219  63.3812955  48.9311630 100.2115074  63.6662605  48.7131825
 101.5143208  63.2206718  48.0838907 104.4503755  63.4059475  52.6465970
 105.2264145  63.8955928  52.9190586 103.7251889  63.8317530  53.1037839
  89.1073470  77.9620706  54.0183075  88.9727938  77.2021107  53.4521073
  88.6905532  78.6861606  53.5511864 100.2432433  73.1457629  43.0259650
 100.9468283  73.3507632  43.6417306  99.5195081  73.7134391  43.2908734
 101.0730243  68.8967490  49.1461920 101.0165444  69.3536042  48.3069553
 101.6258585  68.1358175  48.9684763 104.8835049  64.6857222  49.9712040
 104.6271983  64.2853858  50.8020248 104.2587917  65.4001016  49.8462179
  92.2642595  78.8590023  54.2301518  92.1474980  79.8035455  54.1280208
  91.4435042  78.5563584  54.6187317 102.1519130  73.5840158  45.0758110
 102.9864734  73.1521357  44.8935585 101.9903473  73.4122172  46.0035005
 101.8065022  70.0872272  46.4414450 101.7513826  69.9216543  45.5002894
 101.1811077  70.7948305  46.5976639  86.5957537  65.3240336  60.2675872
  87.2416401  64.8139290  60.7563097  86.3874688  66.0609018  60.8419297
  99.1210929  72.3921184  65.7668012  99.9902089  72.5661836  65.4054647
  98.6417681  73.2115600  65.6443742  95.1161148  59.5880381  46.0199768
  95.1039817  60.5322221  46.1768039  96.0084570  59.4050526  45.7259229
  93.2897110  79.5118285  57.4457446  94.1924356  79.5441895  57.7623941
  93.0634480  78.5818736  57.4603782  95.0450712  78.2649271  54.1067525
  94.0946343  78.2651133  53.9931897  95.3483198  77.5182006  53.5903559
  98.9313267  56.1823157  50.2745705  98.1645663  55.6281644  50.4202387
  99.3423972  56.2545026  51.1359856  90.9355028  62.4707953  64.3650886
  91.7986490  62.1144758  64.5754211  90.3620439  62.1321848  65.0526290
 103.4479927  85.9072714  51.0971703 102.8844792  85.8162651  50.3287990
 103.3332322  85.0872618  51.5774195 100.9944359  87.4023906  53.9355923
 101.7865651  87.0614730  53.5202222 101.2341009  87.5118881  54.8558076
 102.9535113  86.6632819  46.8073302 103.7265989  86.1161806  46.6686178
 103.3060512  87.5277068  47.0187763 104.7920156  87.9909201  60.0140201
 104.5010021  88.8954832  59.8986868 105.4277140  88.0325729  60.7284271
 105.7176362  85.3686050  56.6041561 106.3139935  85.1442072  55.8898524
 105.7751334  84.6270795  57.2067009 105.2901391  82.8225485  44.4391752
 105.5426911  82.3007006  43.6775215 104.3525950  82.6591630  44.5418435
 105.0097680  84.7253591  46.6416127 104.8933938  84.0498494  47.3097211
 105.1199939  84.2385965  45.8248280 103.2022522  84.1284413  53.0426699
 102.2773019  83.9960628  53.2504391 103.4506935  84.9078633  53.5396642
 100.5631333  83.7717687  53.8770488 100.6923714  84.0252166  54.7909900
  99.8828784  84.3645395  53.5575144 105.4794422  84.4228256  62.1940297
 106.2209107  84.9613300  61.9175120 104.7731408  85.0494545  62.3511848
 103.7230620  86.4104477  54.7494595 104.2931977  86.8391745  54.1112080
 104.3138732  86.1287061  55.4478781 105.7675425  82.9856147  48.6204397
 106.4699468  83.4377191  49.0878324 105.4356053  82.3439966  49.2484290
 104.2155786  81.5767904  62.9955607 103.5854447  82.2584185  63.2291003
 104.1091874  81.4650986  62.0508745  99.5100759  81.2439700  53.9221531
  98.7199813  81.4997229  53.4461641 100.0012006  82.0588038  54.0273571
 101.4615504  81.6084279  50.8805007 100.6646667  81.7202973  51.3988503
 101.2341096  81.9470931  50.0145898  97.7938462  81.4970190  56.3536522
  98.0446500  82.3817200  56.6194097  98.3298010  81.3174792  55.5811613
 103.4936529  75.8788670  65.3580858 103.1003475  75.3254868  66.0328502
 104.3102669  76.1899248  65.7487375 100.4598587  87.3172528  49.2694427
 100.9723107  88.1115778  49.4199992 101.1121300  86.6198818  49.2028029
 102.2693471  90.4338284  51.3517181 102.4460100  91.3556249  51.1638165
 103.0650305  90.1196703  51.7811560 101.5545828  82.4802916  61.2279344
 101.4399343  81.5788173  61.5286443 100.6990346  82.7266613  60.8764160
 103.3924787  91.9516458  57.3527523 103.9432212  91.8233521  56.5804517
 102.5536263  92.2511347  57.0022416  98.4247503  85.6461182  50.0453998
  99.2622725  86.0558191  49.8287706  98.6025771  84.7060624  50.0154192
 105.6801079  75.7771037  54.1980811 106.5454076  75.5813845  53.8386700
 105.7478588  75.5481388  55.1250168 103.2863398  78.0073245  51.5697178
 103.8607150  77.7848426  50.8370371 103.8734381  78.0761939  52.3225779
 103.6132985  80.0377706  45.5893063 102.7770298  80.3752392  45.9102338
 103.4737755  79.9026685  44.6520200 105.5886066  74.8814494  50.2972247
 104.9350478  74.5663511  49.6728862 105.5466540  74.2590234  51.0232070
  98.4473675  82.9851898  50.7164731  98.2498074  82.3921258  49.9915798
  97.8920339  82.6804108  51.4340670 106.4270398  82.8775004  52.8359325
 106.4819008  81.9248840  52.7601801 105.6161600  83.0334443  53.3200623
 104.3662758  81.4952064  50.5949703 103.5530624  81.7946234  51.0014896
 104.8621752  81.1007753  51.3124186 103.8576833  79.0670419  56.2110938
 104.4976212  78.9259178  55.5133902 103.0254364  78.7804933  55.8349540
 104.6337137  88.3672850  52.3245931 105.4277735  87.8723170  52.1228506
 103.9228829  87.8390713  51.9613636 100.9419900  82.5115932  48.4005684
 100.0117488  82.4500387  48.6175646 101.0377372  81.9891884  47.6042325
 100.8605449  79.0370744  50.9883925 101.1212267  79.9516078  50.8793086
 101.6822622  78.5695187  51.1380538 102.3330375  80.4508502  58.1582750
 103.0053428  80.2425864  57.5095399 101.5060161  80.2530588  57.7187982
 102.7357872  83.7251104  58.9185187 102.5977670  82.9931343  59.5196726
 103.6462795  83.6360005  58.6369375 105.3640173  83.4371064  58.4068867
 106.0739791  82.7964256  58.3655485 105.3209481  83.6883959  59.3295047
 104.0769107  80.4236282  60.2264506 103.5406464  79.9727020  60.8786102
 103.4885815  80.5582191  59.4834970 103.4871366  79.8824933  42.7890970
 102.6100832  79.7613734  42.4253216 103.9629119  79.0911011  42.5369858
  95.0073506  84.6702093  52.8832477  95.6944546  84.3563823  52.2953492
  94.8521634  85.5743457  52.6099728  99.8108228  79.5592289  57.3117501
  99.7266417  78.9517959  56.5767910  98.9890934  80.0501308  57.3126997
 104.3956109  90.6460731  59.5014398 105.0965569  91.2797214  59.6543792
 103.9251224  90.9875462  58.7410037  99.9923827  90.1797086  56.4345501
 100.5777264  89.4340774  56.5673405  99.7948666  90.4901043  57.3182165
 102.8462482  93.2148333  51.4507943 102.1772858  93.6994461  50.9671983
 102.7075352  93.4617554  52.3651322  94.5841482  82.7502686  55.1549944
  94.6225581  82.2166277  55.9487062  94.0781775  82.2237892  54.5360921
 101.9632244  77.5967227  58.6512486 102.0273571  78.4582058  58.2389884
 101.8999364  76.9841228  57.9184845 101.4384517  79.6690359  62.2985521
 102.0656555  79.2867437  62.9123045 100.5812436  79.4504561  62.6641213
  98.2150059  81.4766788  48.2303875  98.5103500  80.5677467  48.1770929
  97.3138095  81.4554528  47.9084878 101.7444306  79.5522785  54.2131424
 101.0230892  80.1658753  54.0738897 102.5337562  80.0880550  54.1348070
 104.5470620  76.8877211  60.4872076 105.0705022  77.1339508  61.2498385
 104.3282953  77.7197246  60.0675213  99.9437901  79.1580886  48.3543201
  99.6150607  78.2778265  48.1718306 100.2977272  79.1028555  49.2419590
 103.0579724  79.4453856  48.7218678 103.3975797  79.9739777  47.9997287
 103.5051845  79.7834262  49.4977245 105.7523165  77.8290907  58.1721746
 105.4119985  77.0298720  58.5742426 105.0462171  78.1292617  57.5998579
 105.0447871  77.9428477  46.9211971 105.7656234  78.3209730  46.4175688
 104.4213175  78.6617354  47.0246949 103.9278216  81.6059340  54.4341048
 103.7822796  81.9199643  55.3265329 103.4503419  82.2244240  53.8811947
 105.7874598  78.5961888  54.4821937 105.7736167  77.7002981  54.1454235
 106.5047027  78.6032551  55.1160223  98.4023878  84.1464684  57.3728709
  97.8577346  84.9224492  57.5048983  99.2803228  84.4935488  57.2147830
 105.1911494  77.4776268  49.7509508 105.3127406  76.5492914  49.9500395
 104.9013537  77.4914954  48.8387823  99.1889900  83.2734580  60.2658866
  98.4471636  83.4217216  60.8523496  98.8682644  83.5342846  59.4025615
  99.6346513  91.1600009  52.2969261 100.4604533  90.8603781  51.9167904
  99.2840565  90.3907631  52.7459049 104.6028046  90.5126477  54.3666934
 103.9808056  89.8497182  54.0669162 105.2732913  90.5387609  53.6840582
  97.8355118  89.0786335  53.2558194  96.9987027  88.6508510  53.0742195
  97.8078764  89.2718779  54.1928985 104.6752574  78.9908265  63.9599440
 104.7240729  79.8670388  63.5777210 105.2175088  78.4485658  63.3871083
 104.1641553  89.0630401  47.8425395 104.3129674  89.7465865  47.1892067
 104.9707997  89.0435491  48.3574850 101.9194186  85.0895578  48.8486464
 101.6740228  84.1857908  49.0466674 102.0890101  85.0912729  47.9065942
 101.1889834  80.8223936  46.3472625 100.4959079  80.8968291  45.6912661
 100.9441586  80.0584279  46.8694142 106.2326675  80.8189320  42.5908080
 105.3258130  80.5222433  42.6670793 106.5102656  80.5219138  41.7242366
  97.1504615  82.1395684  53.0407126  96.8307399  81.2860992  52.7481500
  96.6038043  82.3544262  53.7965094 100.9284522  84.8558125  56.7576633
 101.1470532  85.7875232  56.7764667 101.3410296  84.4966099  57.5431437
 105.8012388  80.4291330  66.1479382 105.7009115  81.3785687  66.0791473
 105.5833930  80.1009569  65.2755452 105.0025459  77.6776255  42.7320059
 105.8644623  78.0031154  42.9915876 105.1875803  76.8907751  42.2193125
  97.0192875  85.7598595  55.0100248  96.3256346  85.3452548  54.4970202
  97.7665866  85.8019132  54.4133667 105.6643658  83.8588469  64.9644443
 105.1810740  84.6588829  65.1708332 105.7504597  83.8696414  64.0111887
  98.9329617  85.6916849  52.8866263  98.9100306  85.7904536  51.9348146
  99.2430254  86.5382000  53.2083429 101.5916995  87.7493004  57.0012877
 102.5460249  87.7176946  56.9342809 101.3929519  87.2883628  57.8163103
 102.1816377  86.3194120  59.5683675 103.0009266  86.8138199  59.5918512
 102.4553185  85.4026088  59.5401242  99.9467224  93.2912623  54.0183075
  99.8121692  92.5313024  53.4521073  99.5299286  94.0153523  53.5511864
  97.4351292  80.6532254  60.2675872  98.0810155  80.1431208  60.7563097
  97.2268443  81.3900935  60.8419297 101.7748783  77.7999871  64.3650886
 102.6380244  77.4436676  64.5754211 101.2014193  77.4613766  65.0526290
  48.1748879  -2.4497135  40.8454471  48.4145477  -1.8178611  41.5233490
  47.3318075  -2.8009095  41.1319831  60.0904910   1.5967166  37.8217009
  59.5269776   1.5057103  37.0533297  59.9757305   0.7767070  38.3019502
  57.6369342   3.0918358  40.6601230  58.4290634   2.7509182  40.2447529
  57.8765992   3.2013333  41.5803383  65.6704469   5.2638134  33.1331474
  65.0192449   5.8492214  32.7465488  66.4648832   5.7944329  33.1926512
  59.5960096   2.3527271  33.5318609  60.3690972   1.8056258  33.3931484
  59.9485495   3.2171520  33.7433070  61.4345139   3.6803653  46.7385508
  61.1435005   4.5849284  46.6232174  62.0702123   3.7220181  47.4529577
  62.3601346   1.0580502  43.3286868  62.9564918   0.8336524  42.6143830
  62.4176317   0.3165247  43.9312315  67.1479734   2.9528566  33.6700459
  66.5125567   3.0263192  34.3821363  66.8177141   3.5422164  32.9919538
  66.3935024   3.3665069  43.7335302  66.0935747   4.2690107  43.6251109
  66.0486083   3.0997252  44.5856454  59.8447505  -0.1821135  39.7672006
  58.9198002  -0.3144921  39.9749698  60.0931919   0.5973085  40.2641948
  57.2056316  -0.5387861  40.6015795  57.3348698  -0.2853382  41.5155207
  56.5253768   0.0539847  40.2820450  61.3755804  10.1309389  36.7006269
  61.2979833  11.0817214  36.7794750  60.7717447   9.7855261  37.3581196
  67.9203560   2.8153039  41.2710054  67.2912422   2.9798753  40.5686121
  67.5329222   3.2294648  42.0421018  71.7992792   3.7507477  38.6254417
  71.1143830   4.1306378  38.0751451  71.8836641   4.3602803  39.3586365
  63.4731522   2.5527447  38.5360139  63.9369867   2.8315150  37.7464761
  63.2088320   1.6510891  38.3533229  60.3655603   2.0998928  41.4739902
  60.9356960   2.5286197  40.8357386  60.9563715   1.8181513  42.1724088
  70.1689552   4.2739391  43.3972118  70.9906995   3.8719578  43.1154800
  70.1651954   4.1707625  44.3488234  63.9346155   3.8223434  45.5532829
  63.9990587   4.2843842  46.3891001  63.2257079   3.1920799  45.6815139
  63.6494173   5.4891542  35.4211809  63.5139847   6.3343078  35.8496657
  64.1903985   5.6910819  34.6577743  57.1023570   3.0066980  35.9939734
  57.6148091   3.8010230  36.1445299  57.7546283   2.3093270  35.9273336
  58.9118455   6.1232736  38.0762487  59.0885083   7.0450701  37.8883471
  59.7075288   5.8091155  38.5056867  65.2762649   6.1115108  49.5512151
  64.8326503   5.3251487  49.2333056  65.9379863   6.2994259  48.8856042
  60.0349770   7.6410910  44.0772830  60.5857195   7.5127973  43.3049824
  59.1961246   7.9405799  43.7267722  67.3743887   6.3917908  47.5793552
  67.3562362   7.2126789  47.0873822  68.2963807   6.2671984  47.8043694
  63.8316941   3.9062038  48.4217061  64.3645278   3.1450326  48.1916369
  63.3031022   3.6135690  49.1641215  55.0672487   1.3355634  36.7699305
  55.9047709   1.7452643  36.5533012  55.2450754   0.3955076  36.7399499
  65.1969654   3.0348030  35.9335873  64.6691015   2.3000790  35.6209110
  64.6957157   3.8122707  35.6875841  66.2490333   9.5625748  31.8567532
  65.5752032   9.8657444  32.4652490  66.6356155  10.3654828  31.5072989
  69.7529755   4.5647425  37.2286003  69.2992082   3.7238335  37.2851194
  69.1223722   5.2008823  37.5660784  68.1962694   6.4023922  38.1635822
  68.4885669   6.9628979  37.4448187  68.7061315   6.6952483  38.9188981
  55.0898658  -1.3253650  37.4410038  54.8923058  -1.9184290  36.7161105
  54.5345322  -1.6301440  38.1585977  64.2186575   2.4949579  30.7982914
  63.7806005   1.7785438  30.3388552  64.9597016   2.7225694  30.2368006
  63.1596319   7.1804273  39.2529275  63.1172498   7.4065119  38.3237807
  64.0759018   6.9467647  39.4015076  61.2762120   4.0567302  39.0491238
  62.0702719   3.5617622  38.8473812  60.5653813   3.5285165  38.6858943
  66.0956965   6.4385397  43.4003605  66.1493987   7.0076334  44.1681321
  65.2271746   6.6087282  43.0357642  68.2859728   3.0313746  49.9744271
  68.1345234   2.8024298  49.0574354  68.2764407   3.9884348  49.9875616
  63.8533396   4.6296324  42.7289075  63.7144482   4.2615108  43.6015013
  63.0647992   5.1443963  42.5573032  64.4481548   9.7305420  34.0714611
  64.6233304   9.2593463  34.8860234  63.7614336  10.3571186  34.2995872
  65.4038611   4.0077926  40.1177912  65.0688444   3.9678696  41.0135562
  64.9042557   3.3422642  39.6448323  69.9951935   6.0632869  48.0520752
  69.9364481   5.3792089  47.3851335  70.3971453   6.8051859  47.6001378
  59.0142633  12.8794783  40.8454471  59.2539232  13.5113307  41.5233490
  58.1711830  12.5282823  41.1319831  69.9969342   4.0272453  46.2834732
  69.1096121   3.6898375  46.4061131  70.5667893   3.2955484  46.5203497
  51.6498489   0.3596545  39.6077783  52.3369529   0.0458275  39.0198799
  51.4946618   1.2637909  39.3345035  63.5270495   8.6873905  43.2495975
  63.4540667   9.4928877  43.7615280  63.0847888   8.8865871  42.4243997
  63.3160275   7.9245675  36.7598797  62.5327797   8.4667356  36.8537021
  64.0153020   8.4419655  37.1593038  65.9869179   8.5860739  45.4054134
  66.6997151   9.2208204  45.3330035  65.4959207   8.6824605  44.5894136
  61.0381092   6.3355183  46.2259705  61.7390552   6.9691666  46.3789099
  60.5676207   6.6769914  45.4655344  69.1635488   4.6773133  34.5107612
  69.4395332   4.5629727  35.4201486  68.2939987   4.2790617  34.4719785
  65.7989552   8.9259483  38.1540425  65.9811947   8.1081139  38.6168178
  66.6222538   9.1427176  37.7165315  66.1331718   7.8527669  35.4155474
  66.6619484   7.3420123  34.8025636  66.3959937   7.5370199  36.2801007
  56.6348810   5.8691538  43.1590807  57.2202247   5.1235226  43.2918712
  56.4373649   6.1795495  44.0427471  59.4887466   8.9042785  38.1753250
  58.8197841   9.3888913  37.6917290  59.3500335   9.1512006  39.0896628
  51.2266465  -1.5602862  41.8795251  51.2650565  -2.0939271  42.6732369
  50.7206758  -2.0867656  41.2606228  63.6292734  10.9386529  44.7735908
  64.1811042  11.1018150  45.5384993  63.9698928  11.5290967  44.1015933
  68.4803609   5.7647786  50.6284563  69.0243512   6.3777745  50.1339517
  67.8990453   6.3227365  51.1451576  66.7661121   8.8868504  41.7599590
  66.6412261   8.0858244  41.2510536  67.4240213   9.3814698  41.2713560
  68.8296030   6.6877524  43.3879140  67.8826365   6.5682876  43.3157467
  69.1778803   5.8000022  43.4705402  65.8342463   6.4830241  39.5883493
  65.6867426   5.5546948  39.7691063  66.6595957   6.5050331  39.1040568
  69.4376585   7.3058799  40.6748365  70.3623132   7.1001661  40.5372817
  69.2691888   7.0575201  41.5837707  69.2271901   7.8244467  36.0310457
  69.4008779   7.2590889  35.2784309  69.7200792   8.6245362  35.8489947
  55.0448861  -0.1640864  44.0974016  54.5002329   0.6118944  44.2294290
  55.9228211   0.1829940  43.9393137  70.2147074   7.1411231  33.1307355
  70.9097978   7.7617924  33.3494670  70.5570224   6.2906582  33.4059733
  55.8314883  -1.0370968  46.9904173  55.0896619  -0.8888332  47.5768803
  55.5107627  -0.7762702  46.1270922  72.1138497   4.5910937  34.6594686
  72.6389821   4.9298209  33.9344006  72.0260849   3.6557952  34.4757821
  63.7758546   8.5045010  46.7884563  64.0845672   8.2594157  47.6607262
  64.5734028   8.7091649  46.3003433  63.7979158  10.6582920  39.0189939
  63.3584148  10.1659299  39.7122796  64.5487275  10.1155888  38.7782014
  56.2771497   6.8494461  39.0214567  57.1029516   6.5498233  38.6413211
  55.9265549   6.0802083  39.4704356  61.2453030   6.2020929  41.0912241
  60.6233039   5.5391634  40.7914469  61.9157897   6.2282061  40.4085889
  54.4780102   4.7680787  39.9803501  53.6412010   4.3402962  39.7987502
  54.4503747   4.9613231  40.9174292  71.8032403   5.2243840  49.9645884
  71.0127947   5.2067979  49.4250383  71.5665757   5.7632134  50.7194920
  60.8066537   4.7524852  34.5670701  60.9554657   5.4360317  33.9137374
  61.6132980   4.7329942  35.0820157  58.5619170   0.7790030  35.5731770
  58.3165212  -0.1247640  35.7711980  58.7315084   0.7807181  34.6311248
  64.3061942   7.2472983  32.0382449  63.7335909   7.8663170  31.5852921
  64.8794736   7.7972345  32.5722371  67.5259202   7.5310133  33.1691031
  68.4589875   7.4655695  33.3723907  67.4382415   8.3666400  32.7105564
  70.1547219   6.8476003  30.1294979  70.0760850   6.5135867  31.0230736
  70.9756885   7.3397771  30.1286451  64.5747433   2.6351542  50.8399158
  65.4950443   2.8130141  51.0339205  64.5397016   1.6907587  50.6878857
  57.5709506   0.5452576  43.4821939  57.7895516   1.4769684  43.5009973
  57.9835280   0.1860551  44.2676743  53.6617858   1.4493047  41.7345554
  52.9681330   1.0347000  41.2215509  54.4090849   1.4913583  41.1378973
  55.5754601   1.3811301  39.6111569  55.5525289   1.4798988  38.6593452
  55.8855237   2.2276452  39.9328735  58.2341979   3.4387456  43.7258184
  59.1885232   3.4071398  43.6588115  58.0354502   2.9778079  44.5408410
  58.8241361   2.0088572  46.2928981  59.6434250   2.5032650  46.3163819
  59.0978168   1.0920540  46.2646549  56.5892207   8.9807075  40.7428382
  56.4546675   8.2207476  40.1766380  56.1724270   9.7047975  40.2757170
  67.7251170   4.1643999  29.7504957  68.4287021   4.3694001  30.3662613
  67.0013819   4.7320761  30.0154040  59.7461333   9.8776392  40.9546824
  59.6293717  10.8221825  40.8525515  58.9253780   9.5749954  41.3432623
  69.6337868   4.6026528  31.8003417  70.4683472   4.1707726  31.6180892
  69.4722211   4.4308542  32.7280311  66.6029667   3.4107553  52.4913319
  67.4720827   3.5848205  52.1299954  66.1236419   4.2301970  52.3689048
  60.7715847  10.5304654  44.1702753  61.6743094  10.5628264  44.4869248
  60.5453217   9.6005105  44.1849088  62.5269449   9.2835641  40.8312831
  61.5765080   9.2837502  40.7177204  62.8301936   8.5368375  40.3148866
  78.2622143  15.1196179  41.8958594  78.9000553  15.0002926  41.1921934
  78.1442986  16.0677023  41.9546546  75.0711849  15.0723607  41.8320118
  74.7330361  14.9564672  40.9440653  75.9401617  14.6714772  41.8121125
  70.9298665  16.9259084  37.8217009  70.3663530  16.8349021  37.0533297
  70.8151060  16.1058988  38.3019502  75.5531632  16.2258459  47.7906324
  75.5420273  15.8311257  46.9186828  75.7152272  15.4924532  48.3840095
  68.4763097  18.4210275  40.6601230  69.2684389  18.0801100  40.2447529
  68.7159747  18.5305250  41.5803383  76.5098224  20.5930051  33.1331474
  75.8586203  21.1784132  32.7465488  77.3042586  21.1236246  33.1926512
  70.4353851  17.6819188  33.5318609  71.2084727  17.1348176  33.3931484
  70.7879250  18.5463438  33.7433070  72.2738893  19.0095571  46.7385508
  71.9828759  19.9141202  46.6232174  72.9095878  19.0512098  47.4529577
  73.1995100  16.3872419  43.3286868  73.7958672  16.1628442  42.6143830
  73.2570072  15.6457165  43.9312315  72.7720129  13.8411855  31.1637059
  73.0245649  13.3193376  30.4020522  71.8344688  13.6778000  31.2663742
  77.8163411  12.8447633  38.9711802  78.6026501  12.4267056  38.6202219
  78.0802116  13.7493725  39.1393450  77.9873489  18.2820483  33.6700459
  77.3519322  18.3555110  34.3821363  77.6570895  18.8714082  32.9919538
  83.2171839  12.7822866  39.8744780  83.9497010  12.2122083  40.1082610
  82.4611194  12.3944467  40.3151286  72.4916417  15.7439961  33.3661433
  72.3752675  15.0684864  34.0342518  72.6018677  15.2572334  32.5493587
  74.8347958  15.2050108  37.0708123  74.4706165  14.6780729  37.7821044
  75.6915074  14.8148577  36.8974608  74.4753445  10.2340007  32.0669471
  74.6427848  11.1020244  32.4339942  74.2850614  10.3967289  31.1430760
  77.2328778  18.6956986  43.7335302  76.9329501  19.5982025  43.6251109
  76.8879838  18.4289169  44.5856454  70.6841260  15.1470783  39.7672006
  69.7591756  15.0146997  39.9749698  70.9325673  15.9265002  40.2641948
  80.6325922  11.2139526  41.4132739  79.7242800  11.1454935  41.1191500
  80.5813518  11.6911471  42.2414564  74.4542666  12.6897665  33.0516138
  74.3342291  13.1354716  33.8901618  73.7595254  13.0382982  32.4929676
  68.0450071  14.7904057  40.6015795  68.1742452  15.0438536  41.5155207
  67.3647522  15.3831765  40.2820450  72.2149558  25.4601307  36.7006269
  72.1373588  26.4109132  36.7794750  71.6111202  25.1147179  37.3581196
  74.7066788  12.6329172  49.3567636  73.9300122  13.1923092  49.3470501
  75.3457351  13.1185955  49.8782506  82.4987569   9.4155965  43.1910613
  81.8561949   9.7088498  42.5450407  81.9942497   9.3008885  43.9963810
  80.1527732  13.1619138  33.8796472  81.0645588  13.3946525  33.7044170
  79.6437379  13.7456182  33.3171551  72.9613160  15.4414625  48.9185603
  73.7027845  15.9799669  48.6420427  72.2550146  16.0680914  49.0757155
  78.4368500  17.5843766  47.5157765  78.8451856  17.1426176  46.7712397
  77.7145761  17.0096393  47.7691958  74.7899570  12.5216373  44.8891322
  75.6360765  12.9455786  45.0325971  74.7298208  11.8649997  45.5829885
  78.7597315  18.1444956  41.2710054  78.1306177  18.3090671  40.5686121
  78.3722977  18.5586566  42.0421018  82.6386546  19.0799394  38.6254417
  81.9537585  19.4598296  38.0751451  82.7230396  19.6894721  39.3586365
  77.9399015  10.1820741  46.5472495  77.6959947  10.9362801  46.0106771
  78.2158946  10.5606089  47.3819742  79.8937478  16.7259353  45.2249761
  80.1054373  17.3691113  44.5484142  79.8467226  15.8921670  44.7571691
  77.4963707   9.3377174  42.1286333  76.6348186   9.6358428  42.4203071
  77.5226142   9.5547573  41.1967366  74.3125276  17.8819365  38.5360139
  74.7763622  18.1607068  37.7464761  74.0482075  16.9802809  38.3533229
  71.2049357  17.4290846  41.4739902  71.7750715  17.8578114  40.8357386
  71.7957469  17.1473431  42.1724088  73.2494162  14.0042517  35.3449704
  73.9518206  14.4563561  35.8123630  72.9174791  13.3626336  35.9729597
  71.6974524  12.5954274  49.7200913  71.0673185  13.2770554  49.9536310
  71.5910612  12.4837355  48.7754051  66.9919496  12.2626070  40.6466837
  66.2018550  12.5183598  40.1706948  67.4830744  13.0774407  40.7518878
  81.0083306  19.6031309  43.3972118  81.8300750  19.2011496  43.1154800
  81.0045709  19.4999543  44.3488234  68.9434242  12.6270649  37.6050314
  68.1465405  12.7389343  38.1233810  68.7159834  12.9657301  36.7391205
  74.7739909  19.1515352  45.5532829  74.8384342  19.6135759  46.3891001
  74.0650833  18.5212717  45.6815139  65.2757199  12.5156560  43.0781828
  65.5265238  13.4003570  43.3439404  65.8116748  12.3361162  42.3056920
  89.0989299  15.9470057  39.7457090  88.3453007  15.3777455  39.5901094
  89.2336840  15.9132722  40.6927724  74.4887927  20.8183460  35.4211809
  74.3533602  21.6634995  35.8496657  75.0297740  21.0202737  34.6577743
  70.9755267   6.8975039  52.0826164  70.5822212   6.3441238  52.7573808
  71.7921407   7.2085618  52.4732682  67.9417324  18.3358898  35.9939734
  68.4541845  19.1302148  36.1445299  68.5940037  17.6385188  35.9273336
  69.7512209  21.4524654  38.0762487  69.9278838  22.3742619  37.8883471
  70.5469043  21.1383073  38.5056867  73.8923228   8.3132918  49.6746421
  74.6332941   8.9140072  49.5950883  74.1241151   7.5710556  49.1164463
  69.0364566  13.4989286  47.9524650  68.9218081  12.5974543  48.2531749
  68.1809083  13.7452982  47.6009467  76.1156403  21.4407026  49.5512151
  75.6720258  20.6543405  49.2333056  76.7773617  21.6286177  48.8856042
  70.8743525  22.9702828  44.0772830  71.4250950  22.8419891  43.3049824
  70.0355001  23.2697717  43.7267722  78.2137642  21.7209826  47.5793552
  78.1956117  22.5418707  47.0873822  79.1357562  21.5963901  47.8043694
  74.6710696  19.2353955  48.4217061  75.2039032  18.4742244  48.1916369
  74.1424777  18.9427607  49.1641215  65.9066241  16.6647552  36.7699305
  66.7441463  17.0744560  36.5533012  66.0844509  15.7246994  36.7399499
  77.8030673  14.3322633  32.4583138  77.2877297  15.1027237  32.6971525
  77.5307982  13.6587769  33.0816199  75.3877784   9.1772333  37.5168376
  74.5319381   8.7879184  37.3374015  75.8004736   9.2564294  36.6568162
  76.9176931   6.7118677  41.9159936  76.4141727   6.6748812  41.1027741
  77.2107538   7.6211419  41.9756592  73.1619817   6.7957406  40.9226117
  74.0272814   6.6000215  40.5632007  73.2297326   6.5667758  41.8495474
  82.7764948  17.0854987  34.3936311  81.9994390  16.7466147  33.9491473
  83.4556428  17.0907610  33.7191276  77.5916977  12.2049725  34.2842919
  77.2867112  12.5195874  35.1353062  78.5447419  12.2831144  34.3270252
  76.0363408  18.3639948  35.9335873  75.5084770  17.6292708  35.6209110
  75.5350911  19.1414624  35.6875841  81.0156254  16.5588968  41.0502919
  80.3579929  17.2488230  41.1383048  81.8196654  16.9485400  41.3936905
  70.7682136   9.0259614  38.2942484  71.3425888   8.8034796  37.5615677
  71.3553118   9.0948309  39.0471086  79.8261713  14.9133341  39.1006861
  80.3393595  15.5463333  39.6028571  80.4762937  14.3134537  38.7350221
  71.0951723  11.0564075  32.3138370  70.2589035  11.3938762  32.6347644
  70.9556493  10.9213055  31.3765507  73.0704804   5.9000863  37.0217554
  72.4169216   5.5849880  36.3974168  73.0285278   5.2776604  37.7477377
  74.1816009  16.1820158  28.9370846  73.2743070  15.9509412  29.1361995
  74.6787041  15.3857777  29.1244827  77.0884087  24.8917665  31.8567532
  76.4145786  25.1949362  32.4652490  77.4749909  25.6946746  31.5072989
  76.3042544  12.3882797  41.3465201  75.3865105  12.6097744  41.1886889
  76.7202688  12.4629107  40.4876909  77.0877592  13.7874212  36.4767882
  77.8349411  14.2995610  36.1675004  77.3569181  13.4658265  37.3372275
  75.3604242  16.2832753  33.4594836  74.4515461  15.9991786  33.5567306
  75.3899326  16.7031832  32.5998143  80.5923509  19.8939343  37.2286003
  80.1385837  19.0530252  37.2851194  79.9617476  20.5300741  37.5660784
  79.5356429  10.8231329  38.4586671  78.7979186  10.3108715  38.7896913
  79.7883203  10.3831710  37.6469948  79.0356449  21.7315839  38.1635822
  79.3279423  22.2920896  37.4448187  79.5455069  22.0244400  38.9188981
  65.9292412  14.0038267  37.4410038  65.7316812  13.4107628  36.7161105
  65.3739076  13.6990477  38.1585977  73.9089136  13.8961374  39.5604631
  73.9637746  12.9435210  39.4847108  73.0980338  14.0520813  40.0445930
  75.0580330  17.8241497  30.7982914  74.6199760  17.1077356  30.3388552
  75.7990771  18.0517612  30.2368006  71.8481496  12.5138433  37.3195010
  71.0349362  12.8132604  37.7260202  72.3440490  12.1194122  38.0369492
  73.9990074  22.5096190  39.2529275  73.9566253  22.7357037  38.3237807
  74.9152773  22.2759565  39.4015076  77.4455708  12.9780258  46.1509904
  77.8005095  13.2051731  47.0104370  78.0927839  13.3098635  45.5287159
  83.1753445  16.0998694  36.8559233  83.0371343  16.2900290  35.9280422
  82.8189663  16.8618077  37.3127284  71.3395571  10.0856789  42.9356245
  71.9794950   9.9445548  42.2379208  70.5073101   9.7991302  42.5594847
  83.2022824  18.1675221  41.8670505  83.6359331  18.0750510  42.7153559
  83.9154405  18.1432721  41.2290521  72.1155875  19.3859219  39.0491238
  72.9096473  18.8909539  38.8473812  71.4047567  18.8577082  38.6858943
  76.9350719  21.7677315  43.4003605  76.9887741  22.3368251  44.1681321
  76.0665500  21.9379200  43.0357642  68.4238638  13.5302301  35.1250990
  67.4936226  13.4686757  35.3420952  68.5196110  13.0078254  34.3287631
  68.3424187  10.0557114  37.7129232  68.6031004  10.9702447  37.6038392
  69.1641359   9.5881556  37.8625845  69.8149112  11.4694871  44.8828056
  70.4872166  11.2612233  44.2340705  68.9878899  11.2716957  44.4433289
  84.0638374  18.2098921  44.4003390  84.2574264  19.1144732  44.6462665
  83.9638992  17.7506340  45.2341975  75.7174685   8.0956812  46.8993717
  75.0702600   8.7946762  46.8058194  76.4875700   8.5292956  47.2669965
  79.1253482  18.3605664  49.9744271  78.9738989  18.1316216  49.0574354
  79.1158162  19.3176266  49.9875616  75.8938819  15.9337577  44.9590537
  76.8230879  16.0848737  44.7859504  75.4729849  16.0221598  44.1039184
  74.6927151  19.9588241  42.7289075  74.5538236  19.5907026  43.6015013
  73.9041747  20.4735881  42.5573032  75.2875303  25.0597338  34.0714611
  75.4627058  24.5885381  34.8860234  74.6008091  25.6863104  34.2995872
  76.2432366  19.3369844  40.1177912  75.9082198  19.2970614  41.0135562
  75.7436311  18.6714560  39.6448323  70.2176610  14.7437474  45.6430494
  70.0796408  14.0117713  46.2442033  71.1281533  14.6546374  45.3614681
  79.1791557  16.6825878  30.3914972  78.5620728  15.9572707  30.2948025
  78.7108046  17.4435239  30.0482046  72.8458910  14.4557433  45.1314173
  73.5558529  13.8150626  45.0900792  72.8028219  14.7070328  46.0540354
  80.8345689  21.3924787  48.0520752  80.7758235  20.7084007  47.3851335
  81.2365207  22.1343777  47.6001378  71.5587844  11.4422651  46.9509813
  71.0225201  10.9913390  47.6031409  70.9704553  11.5768560  46.2080277
  69.8536388  28.2086701  40.8454471  70.0932986  28.8405225  41.5233490
  69.0105584  27.8574741  41.1319831  70.9690103  10.9011303  29.5136276
  70.0919570  10.7800103  29.1498523  71.4447856  10.1097381  29.2615165
  80.8363096  19.3564371  46.2834732  79.9489875  19.0190292  46.4061131
  81.4061647  18.6247402  46.5203497  62.4892243  15.6888462  39.6077783
  63.1763283  15.3750192  39.0198799  62.3340372  16.5929827  39.3345035
  67.2926966  10.5778659  44.0362807  67.2085154   9.9704329  43.3013217
  66.4709672  11.0687677  44.0372304  74.3664250  24.0165823  43.2495975
  74.2934421  24.8220795  43.7615280  73.9241643  24.2157789  42.4243997
  74.1554029  23.2537593  36.7598797  73.3721551  23.7959273  36.8537021
  74.8546775  23.7711573  37.1593038  77.4650679   9.0632222  39.4033002
  77.9619379   8.3102185  39.0834072  76.6937661   9.0996539  38.8376212
  85.3180437  14.7672588  41.0451294  85.3070313  15.6497303  40.6745227
  84.4497816  14.4144139  40.8505831  76.8262933  23.9152657  45.4054134
  77.5390905  24.5500122  45.3330035  76.3352962  24.0116523  44.5894136
  78.5480460  17.8203910  36.9771426  77.6136739  17.9405372  36.8076130
  78.7257129  16.9176376  36.7131435  74.0485648  11.2049605  39.1304687
  73.6783436  10.6520646  39.8185592  74.5444741  10.6007739  38.5779687
  81.9353012  13.6621229  37.5121460  82.4013464  14.4949221  37.4381762
  82.3860512  13.1966211  38.2166718  71.8774847  21.6647101  46.2259705
  72.5784306  22.2983583  46.3789099  71.4069962  22.0061832  45.4655344
  80.0029243  20.0065050  34.5107612  80.2789087  19.8921645  35.4201486
  79.1333741  19.6082535  34.4719785  79.6776133  14.2191708  44.0512255
  79.0247583  14.4667615  43.3964708  80.0556513  13.4055846  43.7174732
  76.6383307  24.2551401  38.1540425  76.8205701  23.4373057  38.6168178
  77.4616293  24.4719093  37.7165315  76.9725472  23.1819586  35.4155474
  77.5013239  22.6712041  34.8025636  77.2353692  22.8662116  36.2801007
  75.7263706  14.9611519  50.5378292  75.0504343  14.8605648  51.2080667
  76.5491340  14.8050733  51.0014289  67.4742565  21.1983456  43.1590807
  68.0596002  20.4527143  43.2918712  67.2767403  21.5087412  44.0427471
  70.3281220  24.2334703  38.1753250  69.6591595  24.7180831  37.6917290
  70.1894090  24.4803923  39.0896628  62.0660220  13.7689056  41.8795251
  62.1044319  13.2352646  42.6732369  61.5600512  13.2424261  41.2606228
  74.4686489  26.2678446  44.7735908  75.0204797  26.4310068  45.5384993
  74.8092682  26.8582884  44.1015933  69.4450982   8.6153596  45.3757793
  69.5092308   9.4768427  44.9635191  69.3818102   8.0027598  44.6430151
  68.9203254  10.6876729  49.0230827  69.5475293  10.3053806  49.6368351
  68.0631173  10.4690931  49.3886520  79.3197363  21.0939704  50.6284563
  79.8637267  21.7069662  50.1339517  78.7384208  21.6519282  51.1451576
  65.6968797  12.4953158  34.9549182  65.9922238  11.5863836  34.9016236
  64.7956833  12.4740897  34.6330184  77.6054876  24.2160422  41.7599590
  77.4806015  23.4150162  41.2510536  78.2633967  24.7106615  41.2713560
  69.2263044  10.5709154  40.9376731  68.5049630  11.1845122  40.7984204
  70.0156300  11.1066919  40.8593377  79.6689784  22.0169442  43.3879140
  78.7220120  21.8974793  43.3157467  80.0172557  21.1291940  43.4705402
  72.0289358   7.9063581  47.2117382  72.5523760   8.1525878  47.9743692
  71.8101691   8.7383616  46.7920520  67.4256639  10.1767256  35.0788507
  67.0969345   9.2964634  34.8963613  67.7796009  10.1214924  35.9664896
  76.6736218  21.8122158  39.5883493  76.5261180  20.8838866  39.7691063
  77.4989711  21.8342249  39.1040568  70.5398462  10.4640225  35.4463985
  70.8794534  10.9926147  34.7242593  70.9870582  10.8020631  36.2222551
  80.2770339  22.6350717  40.6748365  81.2016887  22.4293578  40.5372817
  80.1085643  22.3867118  41.5837707  73.2341903   8.8477276  44.8967053
  72.8938723   8.0485089  45.2987733  72.5280909   9.1478987  44.3243886
  73.8858375   5.9326589  43.3494376  74.7084444   5.4587067  43.2273266
  74.1296438   6.7117072  43.8493062  72.5266609   8.9614847  33.6457278
  73.2474972   9.3396100  33.1420994  71.9031913   9.6803724  33.7492256
  76.6697732   9.6659996  34.5815610  76.8861346  10.5484634  34.2804438
  76.1891799   9.2746209  33.8521252  71.4096953  12.6245709  41.1586355
  71.2641534  12.9386012  42.0510636  70.9322157  13.2430609  40.6057253
  73.2693336   9.6148257  41.2067244  73.2554905   8.7189350  40.8699542
  73.9865764   9.6218921  41.8405530  75.1219467  10.0485597  43.2520371
  74.8637245  10.9702668  43.2504702  74.5904507   9.6516032  43.9420836
  80.0665656  23.1536384  36.0310457  80.2402533  22.5882807  35.2784309
  80.5594547  23.9537279  35.8489947  65.8842615  15.1651054  44.0974016
  65.3396084  15.9410862  44.2294290  66.7621965  15.5121858  43.9393137
  72.6730232   8.4962637  36.4754814  72.7946143   7.5679284  36.6745702
  72.3832275   8.5101323  35.5633130  75.5421423   6.1817548  39.6121534
  75.5643119   6.2456881  38.6573514  75.9589482   5.3422057  39.8062040
  85.9205047  15.9172807  37.6500757  86.3636193  15.1680133  37.2519880
  85.0431557  15.9082944  37.2674489  81.0540828  22.4703149  33.1307355
  81.7491733  23.0909842  33.3494670  81.3963978  21.6198500  33.4059733
  66.6708637  14.2920950  46.9904173  65.9290373  14.4403585  47.5768803
  66.3501382  14.5529215  46.1270922  82.9532251  19.9202854  34.6594686
  83.4783575  20.2590127  33.9344006  82.8654604  18.9849870  34.4757821
  74.6152300  23.8336928  46.7884563  74.9239426  23.5886075  47.6607262
  75.4127782  24.0383567  46.3003433  74.6372912  25.9874838  39.0189939
  74.1977902  25.4951216  39.7122796  75.3881029  25.4447805  38.7782014
  67.1165251  22.1786379  39.0214567  67.9423271  21.8790150  38.6413211
  66.7659303  21.4094001  39.4704356  72.0846784  21.5312847  41.0912241
  71.4626793  20.8683552  40.7914469  72.7551651  21.5573979  40.4085889
  65.3173856  20.0972705  39.9803501  64.4805764  19.6694879  39.7987502
  65.2897502  20.2905148  40.9174292  72.1571312  10.0094635  50.6844747
  72.2059467  10.8856758  50.3022516  72.6993826   9.4672028  50.1116390
  82.6426157  20.5535758  49.9645884  81.8521701  20.5359897  49.4250383
  82.4059512  21.0924052  50.7194920  82.7624032  17.4028224  47.2778612
  82.8122037  17.2378232  48.2194135  82.6537956  16.5355483  46.8876493
  71.6460291  20.0816770  34.5670701  71.7948411  20.7652235  33.9137374
  72.4526735  20.0621860  35.0820157  80.0527795  13.3859152  48.5937919
  80.9537658  13.2465617  48.3021917  80.1275769  13.5513607  49.5336097
  74.3870600  10.7626007  47.4391105  73.5173910  11.0559573  47.1673694
  74.6230081  11.3466452  48.1598369  84.2642229  19.8225166  47.5220634
  83.9727038  20.1855146  48.3584095  83.6514361  19.1092174  47.3433966
  85.4637912  17.3878046  40.0423204  86.2984803  17.8267850  40.2060765
  85.5997040  16.9116699  39.2231450  82.5129417  14.9457781  45.9900692
  82.9883539  15.1385427  45.1819543  81.5894983  15.0016966  45.7444076
  69.4012924  16.1081948  35.5731770  69.1558966  15.2044278  35.7711980
  69.5708839  16.1099098  34.6311248  77.0909634   6.9805624  44.9556526
  77.6091578   7.7166651  44.6303014  76.7364767   7.2869617  45.7903285
  68.6708572  11.8410305  33.0717932  67.9777817  11.9154660  32.4157968
  68.4260324  11.0770649  33.5939449  75.1455697  22.5764901  32.0382449
  74.5729664  23.1955088  31.5852921  75.7188490  23.1264262  32.5722371
  81.2131086  11.8223541  44.2228998  82.1648509  11.9221638  44.2441222
  81.0434537  11.0301809  44.7327082  79.2345466   8.9079124  44.4088398
  78.6395398   9.1884137  43.7134887  78.9495163   9.3973025  45.1805140
  78.3652956  22.8602051  33.1691031  79.2983630  22.7947612  33.3723907
  78.2776169  23.6958318  32.7105564  80.9940973  22.1767921  30.1294979
  80.9154605  21.8427785  31.0230736  81.8150640  22.6689689  30.1286451
  83.6919164  15.0429660  43.3371297  83.6595484  14.1045661  43.5230981
  84.3019788  15.1213697  42.6037122  75.5302495  13.9125713  29.3798501
  76.4761600  13.7831921  29.4486919  75.1516740  13.1740375  29.8567929
  83.8413653  11.8340704  43.3829580  83.3252701  11.0499160  43.1959509
  84.7253601  11.5059420  43.5476100  89.5095714  16.1045667  42.4777334
  90.2399103  15.8430955  43.0385037  88.9002660  15.3674389  42.5179402
  87.5911011  14.2453530  43.0751785  86.8644175  14.1109495  42.4668277
  87.1758298  14.5530358  43.8808503  75.4141188  17.9643459  50.8399158
  76.3344197  18.1422058  51.0339205  75.3790771  17.0199505  50.6878857
  73.7145412  11.8375690  29.3153386  72.8076868  11.5408802  29.3916100
  73.9921393  11.5405508  28.4487673  64.6323353  13.1582053  39.7652433
  64.3126137  12.3047361  39.4726807  64.0856781  13.3730631  40.5210400
  68.4103260  15.8744494  43.4821939  68.6289270  16.8061602  43.5009973
  68.8229034  15.5152469  44.2676743  75.3307478   6.3812579  35.4697628
  74.5208206   6.0359664  35.8452874  76.0191895   6.0720123  36.0585239
  73.2831126  11.4477700  52.8724688  73.1827852  12.3972057  52.8036779
  73.0652668  11.1195939  52.0000758  72.4844197   8.6962625  29.4565366
  73.3463361   9.0217523  29.7161183  72.6694541   7.9094121  28.9438431
  64.5011613  16.7784965  41.7345554  63.8075084  16.3638917  41.2215509
  65.2484604  16.8205501  41.1378973  80.6376833   7.5691151  36.6000589
  80.0575502   8.2275955  36.2178641  80.3712766   6.7468496  36.1888006
  79.0880400   6.9696209  38.8021909  79.5880178   7.0812744  37.9936228
  79.7316008   6.6657262  39.4422717  73.1462396  14.8774839  51.6889750
  72.6629477  15.6775199  51.8953639  73.2323335  14.8882784  50.7357194
  66.4148355  16.7103218  39.6111569  66.3919043  16.8090906  38.6593452
  66.7248992  17.5568369  39.9328735  69.0735733  18.7679373  43.7258184
  70.0278987  18.7363316  43.6588115  68.8748257  18.3069997  44.5408410
  69.6635115  17.3380489  46.2928981  70.4828004  17.8324568  46.3163819
  69.9371923  16.4212458  46.2646549  79.4201711   9.7291242  35.6556937
  78.5327566  10.0140892  35.4377132  79.8355700   9.5685005  34.8084214
  82.7716248   9.7537763  39.3711276  83.5476638  10.2434215  39.6435893
  82.0464382  10.1795817  39.8283146  85.2088806  10.4665382  40.4285217
  85.8033297  10.2261118  39.7178525  85.2815390   9.7472513  41.0558753
  67.4285962  24.3098993  40.7428382  67.2940430  23.5499394  40.1766380
  67.0118024  25.0339893  40.2757170  78.5644925  19.4935916  29.7504957
  79.2680775  19.6985919  30.3662613  77.8407574  20.0612678  30.0154040
  79.3942735  15.2445778  35.8707227  79.3377937  15.7014329  35.0314859
  79.9471078  14.4836462  35.6930070  83.2047541  11.0335510  36.6957347
  82.9484475  10.6332145  37.5265554  82.5800409  11.7479303  36.5707486
  87.5159879  13.7731583  39.2028638  86.9559437  13.8424772  39.9760200
  86.9103382  13.5972567  38.4828134  70.5855088  25.2068310  40.9546824
  70.4687472  26.1513742  40.8525515  69.7647534  24.9041871  41.3432623
  80.4731622  19.9318446  31.8003417  81.3077226  19.4999644  31.6180892
  80.3115965  19.7600459  32.7280311  80.1277514  16.4350559  33.1659756
  80.0726318  16.2694830  32.2248200  79.5023570  17.1426592  33.3221946
  64.9170029  11.6718623  46.9921178  65.5628893  11.1617577  47.4808404
  64.7087181  12.4087305  47.5664604  77.4423422  18.7399471  52.4913319
  78.3114581  18.9140123  52.1299954  76.9630173  19.5593888  52.3689048
  73.4373640   5.9358668  32.7445075  73.4252310   6.8800508  32.9013346
  74.3297062   5.7528813  32.4504536  71.6109602  25.8596572  44.1702753
  72.5136849  25.8920182  44.4869248  71.3846972  24.9297023  44.1849088
  73.3663204  24.6127558  40.8312831  72.4158835  24.6129420  40.7177204
  73.6695690  23.8660293  40.3148866  69.2567520   8.8186240  51.0896193
  70.1198982   8.4623045  51.2999517  68.6832931   8.4800135  51.7771597
  89.1015897  30.4488097  41.8958594  89.7394307  30.3294844  41.1921934
  88.9836740  31.3968941  41.9546546  85.9105604  30.4015525  41.8320118
  85.5724115  30.2856590  40.9440653  86.7795372  30.0006690  41.8121125
  81.7692419  32.2551001  37.8217009  81.2057284  32.1640938  37.0533297
  81.6544814  31.4350906  38.3019502  86.3925387  31.5550377  47.7906324
  86.3814027  31.1603175  46.9186828  86.5546026  30.8216449  48.3840095
  79.3156851  33.7502193  40.6601230  80.1078143  33.4093018  40.2447529
  79.5553501  33.8597168  41.5803383  87.3491978  35.9221969  33.1331474
  86.6979958  36.5076049  32.7465488  88.1436341  36.4528164  33.1926512
  81.2747605  33.0111106  33.5318609  82.0478481  32.4640093  33.3931484
  81.6273004  33.8755355  33.7433070  83.1132648  34.3387488  46.7385508
  82.8222514  35.2433119  46.6232174  83.7489632  34.3804016  47.4529577
  84.0388855  31.7164337  43.3286868  84.6352427  31.4920359  42.6143830
  84.0963826  30.9749082  43.9312315  83.6113883  29.1703772  31.1637059
  83.8639404  28.6485294  30.4020522  82.6738442  29.0069918  31.2663742
  88.6557166  28.1739551  38.9711802  89.4420255  27.7558974  38.6202219
  88.9195870  29.0785643  39.1393450  88.8267243  33.6112401  33.6700459
  88.1913076  33.6847027  34.3821363  88.4964650  34.2006000  32.9919538
  94.0565593  28.1114784  39.8744780  94.7890765  27.5414001  40.1082610
  93.3004949  27.7236384  40.3151286  83.3310172  31.0731878  33.3661433
  83.2146430  30.3976782  34.0342518  83.4412432  30.5864252  32.5493587
  85.6741713  30.5342025  37.0708123  85.3099920  30.0072646  37.7821044
  86.5308829  30.1440494  36.8974608  91.5791013  21.8236358  44.3339389
  91.2474338  22.6931769  44.1100604  90.9836627  21.5072642  45.0133419
  85.3147200  25.5631925  32.0669471  85.4821602  26.4312161  32.4339942
  85.1244369  25.7259207  31.1430760  88.0722533  34.0248904  43.7335302
  87.7723256  34.9273943  43.6251109  87.7273592  33.7581087  44.5856454
  81.5235014  30.4762701  39.7672006  80.5985511  30.3438915  39.9749698
  81.7719428  31.2556920  40.2641948  91.4719677  26.5431444  41.4132739
  90.5636554  26.4746853  41.1191500  91.4207272  27.0203389  42.2414564
  85.2936421  28.0189582  33.0516138  85.1736046  28.4646633  33.8901618
  84.5989009  28.3674900  32.4929676  78.8843825  30.1195974  40.6015795
  79.0136207  30.3730453  41.5155207  78.2041277  30.7123682  40.2820450
  83.0543313  40.7893224  36.7006269  82.9767342  41.7401049  36.7794750
  82.4504956  40.4439097  37.3581196  85.5460542  27.9621090  49.3567636
  84.7693877  28.5215010  49.3470501  86.1851106  28.4477873  49.8782506
  93.3381323  24.7447882  43.1910613  92.6955703  25.0380416  42.5450407
  92.8336252  24.6300803  43.9963810  90.9921487  28.4911056  33.8796472
  91.9039343  28.7238442  33.7044170  90.4831134  29.0748100  33.3171551
  83.8006915  30.7706543  48.9185603  84.5421599  31.3091587  48.6420427
  83.0943900  31.3972832  49.0757155  89.2762254  32.9135683  47.5157765
  89.6845610  32.4718094  46.7712397  88.5539516  32.3388311  47.7691958
  85.6293324  27.8508290  44.8891322  86.4754520  28.2747704  45.0325971
  85.5691962  27.1941915  45.5829885  89.5991069  33.4736874  41.2710054
  88.9699931  33.6382588  40.5686121  89.2116731  33.8878484  42.0421018
  93.4780301  34.4091312  38.6254417  92.7931339  34.7890213  38.0751451
  93.5624150  35.0186639  39.3586365  88.7792770  25.5112659  46.5472495
  88.5353702  26.2654719  46.0106771  89.0552700  25.8898006  47.3819742
  90.7331233  32.0551271  45.2249761  90.9448128  32.6983031  44.5484142
  90.6860981  31.2213588  44.7571691  88.3357461  24.6669092  42.1286333
  87.4741941  24.9650345  42.4203071  88.3619896  24.8839491  41.1967366
  85.1519031  33.2111282  38.5360139  85.6157376  33.4898985  37.7464761
  84.8875829  32.3094727  38.3533229  82.0443112  32.7582764  41.4739902
  82.6144469  33.1870032  40.8357386  82.6351224  32.4765348  42.1724088
  84.0887917  29.3334435  35.3449704  84.7911960  29.7855478  35.8123630
  83.7568545  28.6918253  35.9729597  82.5368278  27.9246191  49.7200913
  81.9066939  28.6062472  49.9536310  82.4304366  27.8129273  48.7754051
  77.8313251  27.5917987  40.6466837  77.0412305  27.8475516  40.1706948
  78.3224498  28.4066325  40.7518878  91.8477060  34.9323226  43.3972118
  92.6694504  34.5303414  43.1154800  91.8439463  34.8291461  44.3488234
  79.7827996  27.9562566  37.6050314  78.9859160  28.0681261  38.1233810
  79.5553589  28.2949219  36.7391205  85.6133664  34.4807270  45.5532829
  85.6778096  34.9427677  46.3891001  84.9044588  33.8504635  45.6815139
  76.1150954  27.8448478  43.0781828  76.3658992  28.7295488  43.3439404
  76.6510502  27.6653079  42.3056920  99.9383054  31.2761975  39.7457090
  99.1846762  30.7069373  39.5901094 100.0730595  31.2424639  40.6927724
  85.3281682  36.1475377  35.4211809  85.1927356  36.9926913  35.8496657
  85.8691494  36.3494655  34.6577743  81.8149021  22.2266957  52.0826164
  81.4215967  21.6733156  52.7573808  82.6315162  22.5377536  52.4732682
  78.7811079  33.6650815  35.9939734  79.2935600  34.4594065  36.1445299
  79.4333792  32.9677106  35.9273336  80.5905964  36.7816572  38.0762487
  80.7672592  37.7034536  37.8883471  81.3862797  36.4674991  38.5056867
  84.7316982  23.6424836  49.6746421  85.4726696  24.2431989  49.5950883
  84.9634905  22.9002474  49.1164463  79.8758320  28.8281203  47.9524650
  79.7611835  27.9266461  48.2531749  79.0202838  29.0744900  47.6009467
  86.9550158  36.7698944  49.5512151  86.5114012  35.9835322  49.2333056
  87.6167372  36.9578094  48.8856042  81.7137279  38.2994745  44.0772830
  82.2644704  38.1711809  43.3049824  80.8748755  38.5989634  43.7267722
  89.0531396  37.0501744  47.5793552  89.0349871  37.8710625  47.0873822
  89.9751316  36.9255819  47.8043694  85.5104450  34.5645873  48.4217061
  86.0432787  33.8034161  48.1916369  84.9818531  34.2719525  49.1641215
  88.6774145  19.6705939  43.9510702  88.3338415  20.5607581  43.8749813
  89.0453108  19.4807597  43.0880287  76.7459996  31.9939470  36.7699305
  77.5835218  32.4036478  36.5533012  76.9238263  31.0538912  36.7399499
  88.6424428  29.6614550  32.4583138  88.1271051  30.4319155  32.6971525
  88.3701736  28.9879686  33.0816199  86.2271539  24.5064251  37.5168376
  85.3713135  24.1171101  37.3374015  86.6398491  24.5856212  36.6568162
  87.7570686  22.0410594  41.9159936  87.2535481  22.0040729  41.1027741
  88.0501292  22.9503337  41.9756592  84.0013571  22.1249324  40.9226117
  84.8666568  21.9292133  40.5632007  84.0691080  21.8959676  41.8495474
  93.6158702  32.4146905  34.3936311  92.8388145  32.0758064  33.9491473
  94.2950183  32.4199528  33.7191276  88.4310731  27.5341642  34.2842919
  88.1260867  27.8487791  35.1353062  89.3841173  27.6123062  34.3270252
  86.8757163  33.6931866  35.9335873  86.3478524  32.9584625  35.6209110
  86.3744666  34.4706542  35.6875841  91.8550009  31.8880886  41.0502919
  91.1973683  32.5780147  41.1383048  92.6590408  32.2777318  41.3936905
  81.6075891  24.3551532  38.2942484  82.1819642  24.1326713  37.5615677
  82.1946873  24.4240226  39.0471086  90.6655468  30.2425259  39.1006861
  91.1787349  30.8755251  39.6028571  91.3156692  29.6426454  38.7350221
  81.9345478  26.3855993  32.3138370  81.0982790  26.7230679  32.6347644
  81.7950247  26.2504973  31.3765507  83.9098558  21.2292781  37.0217554
  83.2562971  20.9141798  36.3974168  83.8679032  20.6068521  37.7477377
  85.0209763  31.5112076  28.9370846  84.1136825  31.2801329  29.1361995
  85.5180795  30.7149695  29.1244827  87.9277842  40.2209583  31.8567532
  87.2539541  40.5241280  32.4652490  88.3143664  41.0238663  31.5072989
  87.1436299  27.7174714  41.3465201  86.2258860  27.9389661  41.1886889
  87.5596442  27.7921025  40.4876909  87.9271346  29.1166130  36.4767882
  88.6743165  29.6287527  36.1675004  88.1962936  28.7950183  37.3372275
  86.1997997  31.6124671  33.4594836  85.2909216  31.3283704  33.5567306
  86.2293080  32.0323749  32.5998143  91.4317264  35.2231260  37.2286003
  90.9779591  34.3822170  37.2851194  90.8011231  35.8592659  37.5660784
  90.3750183  26.1523246  38.4586671  89.6372940  25.6400632  38.7896913
  90.6276957  25.7123628  37.6469948  89.8750203  37.0607757  38.1635822
  90.1673178  37.6212814  37.4448187  90.3848824  37.3536318  38.9188981
  90.4761811  18.9299498  39.0528440  90.7820688  18.0696862  38.7654355
  91.2014416  19.5217118  38.8527434  84.7482891  29.2253291  39.5604631
  84.8031500  28.2727128  39.4847108  83.9374093  29.3812730  40.0445930
  85.8974084  33.1533414  30.7982914  85.4593514  32.4369273  30.3388552
  86.6384525  33.3809529  30.2368006  82.6875250  27.8430351  37.3195010
  81.8743116  28.1424522  37.7260202  83.1834245  27.4486040  38.0369492
  84.8383828  37.8388108  39.2529275  84.7960007  38.0648954  38.3237807
  85.7546527  37.6051483  39.4015076  88.2849462  28.3072176  46.1509904
  88.6398850  28.5343649  47.0104370  88.9321593  28.6390552  45.5287159
  94.0147199  31.4290611  36.8559233  93.8765098  31.6192207  35.9280422
  93.6583418  32.1909994  37.3127284  82.1789325  25.4148707  42.9356245
  82.8188705  25.2737466  42.2379208  81.3466856  25.1283220  42.5594847
  94.0416579  33.4967138  41.8670505  94.4753085  33.4042428  42.7153559
  94.7548159  33.4724639  41.2290521  82.9549629  34.7151137  39.0491238
  83.7490228  34.2201457  38.8473812  82.2441322  34.1869000  38.6858943
  87.7744474  37.0969233  43.4003605  87.8281496  37.6660169  44.1681321
  86.9059255  37.2671118  43.0357642  79.2632393  28.8594219  35.1250990
  78.3329981  28.7978674  35.3420952  79.3589865  28.3370172  34.3287631
  79.1817942  25.3849032  37.7129232  79.4424759  26.2994365  37.6038392
  80.0035114  24.9173474  37.8625845  80.6542867  26.7986789  44.8828056
  81.3265920  26.5904151  44.2340705  79.8272654  26.6008875  44.4433289
  94.9032128  33.5390839  44.4003390  95.0968018  34.4436650  44.6462665
  94.8032746  33.0798258  45.2341975  86.5568439  23.4248730  46.8993717
  85.9096354  24.1238679  46.8058194  87.3269454  23.8584874  47.2669965
  89.9647237  33.6897582  49.9744271  89.8132743  33.4608134  49.0574354
  89.9551916  34.6468183  49.9875616  86.7332573  31.2629495  44.9590537
  87.6624633  31.4140654  44.7859504  86.3123603  31.3513515  44.1039184
  85.5320905  35.2880159  42.7289075  85.3931991  34.9198943  43.6015013
  84.7435501  35.8027798  42.5573032  86.1269057  40.3889255  34.0714611
  86.3020813  39.9177299  34.8860234  85.4401845  41.0155022  34.2995872
  87.0826120  34.6661762  40.1177912  86.7475953  34.6262532  41.0135562
  86.5830066  34.0006478  39.6448323  81.0570364  30.0729392  45.6430494
  80.9190162  29.3409631  46.2442033  81.9675288  29.9838292  45.3614681
  90.0185312  32.0117796  30.3914972  89.4014483  31.2864624  30.2948025
  89.5501800  32.7727156  30.0482046  83.6852665  29.7849351  45.1314173
  84.3952283  29.1442543  45.0900792  83.6421973  30.0362246  46.0540354
  91.6739444  36.7216704  48.0520752  91.6151990  36.0375925  47.3851335
  92.0758962  37.4635694  47.6001378  82.3981599  26.7714569  46.9509813
  81.8618956  26.3205307  47.6031409  81.8098307  26.9060478  46.2080277
  80.6930142  43.5378618  40.8454471  80.9326741  44.1697142  41.5233490
  79.8499339  43.1866658  41.1319831  81.8083858  26.2303220  29.5136276
  80.9313324  26.1092021  29.1498523  82.2841611  25.4389299  29.2615165
  91.6756851  34.6856288  46.2834732  90.7883630  34.3482210  46.4061131
  92.2455402  33.9539320  46.5203497  73.3285998  31.0180380  39.6077783
  74.0157038  30.7042110  39.0198799  73.1734127  31.9221745  39.3345035
  78.1320720  25.9070577  44.0362807  78.0478909  25.2996246  43.3013217
  77.3103427  26.3979595  44.0372304  85.2058004  39.3457741  43.2495975
  85.1328176  40.1512712  43.7615280  84.7635397  39.5449707  42.4243997
  84.9947784  38.5829511  36.7598797  84.2115306  39.1251191  36.8537021
  85.6940529  39.1003490  37.1593038  88.3044434  24.3924140  39.4033002
  88.8013134  23.6394102  39.0834072  87.5331415  24.4288457  38.8376212
  96.1574191  30.0964506  41.0451294  96.1464068  30.9789221  40.6745227
  95.2891571  29.7436057  40.8505831  87.6656688  39.2444575  45.4054134
  88.3784660  39.8792040  45.3330035  87.1746716  39.3408441  44.5894136
  89.3874215  33.1495827  36.9771426  88.4530493  33.2697290  36.8076130
  89.5650883  32.2468294  36.7131435  84.8879403  26.5341523  39.1304687
  84.5177190  25.9812564  39.8185592  85.3838495  25.9299657  38.5779687
  92.7746766  28.9913147  37.5121460  93.2407218  29.8241138  37.4381762
  93.2254267  28.5258128  38.2166718  82.7168601  36.9939018  46.2259705
  83.4178061  37.6275501  46.3789099  82.2463716  37.3353750  45.4655344
  90.8422997  35.3356968  34.5107612  91.1182841  35.2213563  35.4201486
  89.9727496  34.9374453  34.4719785  90.7463429  21.3593734  41.5512361
  89.8326509  21.5897961  41.7194568  91.1756530  21.4432178  42.4026393
  90.5169887  29.5483626  44.0512255  89.8641338  29.7959533  43.3964708
  90.8950267  28.7347764  43.7174732  87.4777061  39.5843319  38.1540425
  87.6599456  38.7664975  38.6168178  88.3010047  39.8011011  37.7165315
  87.8119227  38.5111504  35.4155474  88.3406993  38.0003959  34.8025636
  88.0747446  38.1954034  36.2801007  86.5657460  30.2903437  50.5378292
  85.8898097  30.1897566  51.2080667  87.3885094  30.1342650  51.0014289
  78.3136319  36.5275373  43.1590807  78.8989756  35.7819061  43.2918712
  78.1161158  36.8379330  44.0427471  81.1674975  39.5626621  38.1753250
  80.4985350  40.0472748  37.6917290  81.0287844  39.8095841  39.0896628
  72.9053974  29.0980973  41.8795251  72.9438074  28.5644564  42.6732369
  72.3994267  28.5716179  41.2606228  85.3080243  41.5970364  44.7735908
  85.8598551  41.7601986  45.5384993  85.6486437  42.1874802  44.1015933
  80.2844736  23.9445514  45.3757793  80.3486063  24.8060345  44.9635191
  80.2211857  23.3319516  44.6430151  79.7597009  26.0168646  49.0230827
  80.3869048  25.6345724  49.6368351  78.9024928  25.7982848  49.3886520
  90.1591118  36.4231622  50.6284563  90.7031021  37.0361580  50.1339517
  89.5777962  36.9811200  51.1451576  76.5362552  27.8245076  34.9549182
  76.8315993  26.9155754  34.9016236  75.6350587  27.8032815  34.6330184
  88.4448630  39.5452340  41.7599590  88.3199770  38.7442080  41.2510536
  89.1027722  40.0398533  41.2713560  80.0656799  25.9001072  40.9376731
  79.3443384  26.5137040  40.7984204  80.8550054  26.4358837  40.8593377
  90.5083539  37.3461360  43.3879140  89.5613874  37.2266711  43.3157467
  90.8566312  36.4583858  43.4705402  82.8683112  23.2355499  47.2117382
  83.3917514  23.4817795  47.9743692  82.6495445  24.0675533  46.7920520
  78.2650393  25.5059173  35.0788507  77.9363099  24.6256552  34.8963613
  78.6189764  25.4506842  35.9664896  87.5129972  37.1414076  39.5883493
  87.3654935  36.2130783  39.7691063  88.3383466  37.1634167  39.1040568
  81.3792216  25.7932143  35.4463985  81.7188289  26.3218064  34.7242593
  81.8264337  26.1312549  36.2222551  91.1164094  37.9642635  40.6748365
  92.0410641  37.7585496  40.5372817  90.9479397  37.7159036  41.5837707
  84.0735657  24.1769194  44.8967053  83.7332478  23.3777007  45.2987733
  83.3674664  24.4770905  44.3243886  84.7252129  21.2618506  43.3494376
  85.5478198  20.7878984  43.2273266  84.9690193  22.0408990  43.8493062
  83.3660364  24.2906765  33.6457278  84.0868726  24.6688017  33.1420994
  82.7425668  25.0095641  33.7492256  87.5091486  24.9951914  34.5815610
  87.7255101  25.8776551  34.2804438  87.0285554  24.6038127  33.8521252
  82.2490708  27.9537627  41.1586355  82.1035289  28.2677930  42.0510636
  81.7715911  28.5722527  40.6057253  84.1087091  24.9440175  41.2067244
  84.0948659  24.0481268  40.8699542  84.8259519  24.9510839  41.8405530
  85.9613221  25.3777515  43.2520371  85.7030999  26.2994586  43.2504702
  85.4298262  24.9807950  43.9420836  90.9059410  38.4828302  36.0310457
  91.0796288  37.9174725  35.2784309  91.3988301  39.2829197  35.8489947
  76.7236370  30.4942971  44.0974016  76.1789838  31.2702779  44.2294290
  77.6015720  30.8413776  43.9393137  83.5123987  23.8254555  36.4754814
  83.6339898  22.8971201  36.6745702  83.2226029  23.8393241  35.5633130
  86.3815177  21.5109466  39.6121534  86.4036874  21.5748799  38.6573514
  86.7983236  20.6713974  39.8062040  96.7598801  31.2464725  37.6500757
  97.2029947  30.4972050  37.2519880  95.8825312  31.2374861  37.2674489
  91.8934583  37.7995067  33.1307355  92.5885487  38.4201759  33.3494670
  92.2357733  36.9490418  33.4059733  77.5102392  29.6212867  46.9904173
  76.7684128  29.7695503  47.5768803  77.1895136  29.8821133  46.1270922
  93.7926006  35.2494772  34.6594686  94.3177330  35.5882045  33.9344006
  93.7048358  34.3141787  34.4757821  85.4546054  39.1628846  46.7884563
  85.7633181  38.9177992  47.6607262  86.2521537  39.3675484  46.3003433
  85.4766667  41.3166755  39.0189939  85.0371657  40.8243134  39.7122796
  86.2274784  40.7739723  38.7782014  77.9559006  37.5078296  39.0214567
  78.7817025  37.2082068  38.6413211  77.6053058  36.7385919  39.4704356
  82.9240539  36.8604764  41.0912241  82.3020548  36.1975469  40.7914469
  83.5945406  36.8865896  40.4085889  76.1567611  35.4264623  39.9803501
  75.3199519  34.9986797  39.7987502  76.1291256  35.6197066  40.9174292
  82.9965066  25.3386552  50.6844747  83.0453222  26.2148675  50.3022516
  83.5387580  24.7963946  50.1116390  93.4819912  35.8827676  49.9645884
  92.6915456  35.8651815  49.4250383  93.2453266  36.4215969  50.7194920
  93.6017787  32.7320142  47.2778612  93.6515792  32.5670150  48.2194135
  93.4931710  31.8647401  46.8876493  82.4854046  35.4108688  34.5670701
  82.6342166  36.0944152  33.9137374  83.2920489  35.3913778  35.0820157
  90.8921549  28.7151070  48.5937919  91.7931412  28.5757535  48.3021917
  90.9669524  28.8805525  49.5336097  85.2264355  26.0917925  47.4391105
  84.3567664  26.3851491  47.1673694  85.4623835  26.6758370  48.1598369
  95.1035984  35.1517084  47.5220634  94.8120792  35.5147064  48.3584095
  94.4908115  34.4384092  47.3433966  96.3031666  32.7169963  40.0423204
  97.1378557  33.1559767  40.2060765  96.4390795  32.2408617  39.2231450
  93.3523172  30.2749698  45.9900692  93.8277294  30.4677345  45.1819543
  92.4288737  30.3308884  45.7444076  80.2406679  31.4373865  35.5731770
  79.9952721  30.5336195  35.7711980  80.4102593  31.4391016  34.6311248
  87.9303388  22.3097542  44.9556526  88.4485332  23.0458569  44.6303014
  87.5758521  22.6161535  45.7903285  79.5102326  27.1702223  33.0717932
  78.8171571  27.2446578  32.4157968  79.2654078  26.4062567  33.5939449
  88.1815983  18.7297824  40.4757422  88.4617736  18.0621013  41.1017849
  88.9666590  18.9226920  39.9632086  85.9849451  37.9056818  32.0382449
  85.4123418  38.5247005  31.5852921  86.5582245  38.4556180  32.5722371
  92.0524841  27.1515458  44.2228998  93.0042264  27.2513556  44.2441222
  91.8828291  26.3593727  44.7327082  90.0739220  24.2371042  44.4088398
  89.4789153  24.5176054  43.7134887  89.7888917  24.7264942  45.1805140
  89.2046711  38.1893968  33.1691031  90.1377384  38.1239530  33.3723907
  89.1169924  39.0250235  32.7105564  91.8334728  37.5059839  30.1294979
  91.7548359  37.1719702  31.0230736  92.6544394  37.9981607  30.1286451
  94.5312919  30.3721578  43.3371297  94.4989239  29.4337579  43.5230981
  95.1413542  30.4505615  42.6037122  86.3696250  29.2417631  29.3798501
  87.3155354  29.1123839  29.4486919  85.9910495  28.5032293  29.8567929
  94.6807407  27.1632621  43.3829580  94.1646456  26.3791078  43.1959509
  95.5647356  26.8351338  43.5476100  92.3418134  20.9073637  39.3425393
  92.1442955  20.5988725  40.2268725  92.9517840  21.6335276  39.4723323
 100.3489469  31.4337585  42.4777334 101.0792857  31.1722873  43.0385037
  99.7396414  30.6966307  42.5179402  98.4304766  29.5745447  43.0751785
  97.7037929  29.4401412  42.4668277  98.0152053  29.8822276  43.8808503
  86.2534942  33.2935377  50.8399158  87.1737952  33.4713976  51.0339205
  86.2184525  32.3491422  50.6878857  84.5539167  27.1667607  29.3153386
  83.6470622  26.8700720  29.3916100  84.8315148  26.8697425  28.4487673
  75.4717107  28.4873971  39.7652433  75.1519892  27.6339279  39.4726807
  74.9250535  28.7022549  40.5210400  79.2497015  31.2036412  43.4821939
  79.4683024  32.1353520  43.5009973  79.6622789  30.8444386  44.2676743
  86.1701233  21.7104497  35.4697628  85.3601961  21.3651582  35.8452874
  86.8585649  21.4012041  36.0585239  88.0991781  20.7882544  37.0921924
  88.6522819  21.2077997  37.7511948  88.3361867  19.8618292  37.1344880
  84.1224880  26.7769618  52.8724688  84.0221607  27.7263974  52.8036779
  83.9046422  26.4487856  52.0000758  83.3237951  24.0254543  29.4565366
  84.1857115  24.3509441  29.7161183  83.5088296  23.2386038  28.9438431
  75.3405367  32.1076882  41.7345554  74.6468839  31.6930835  41.2215509
  76.0878358  32.1497419  41.1378973  91.4770588  22.8983069  36.6000589
  90.8969257  23.5567873  36.2178641  91.2106521  22.0760414  36.1888006
  89.9274154  22.2988127  38.8021909  90.4273933  22.4104661  37.9936228
  90.5709762  21.9949180  39.4422717  83.9856150  30.2066756  51.6889750
  83.5023232  31.0067116  51.8953639  84.0717089  30.2174701  50.7357194
  77.2542110  32.0395136  39.6111569  77.2312798  32.1382823  38.6593452
  77.5642746  32.8860287  39.9328735  79.9129488  34.0971291  43.7258184
  80.8672741  34.0655233  43.6588115  79.7142011  33.6361915  44.5408410
  80.5028870  32.6672407  46.2928981  81.3221759  33.1616486  46.3163819
  80.7765677  31.7504375  46.2646549  90.2595466  25.0583159  35.6556937
  89.3721321  25.3432810  35.4377132  90.6749455  24.8976923  34.8084214
  93.6110002  25.0829680  39.3711276  94.3870392  25.5726133  39.6435893
  92.8858136  25.5087735  39.8283146  96.0482561  25.7957300  40.4285217
  96.6427051  25.5553036  39.7178525  96.1209144  25.0764430  41.0558753
  78.2679716  39.6390911  40.7428382  78.1334184  38.8791311  40.1766380
  77.8511779  40.3631810  40.2757170  89.4038679  34.8227834  29.7504957
  90.1074529  35.0277837  30.3662613  88.6801328  35.3904596  30.0154040
  90.2336490  30.5737695  35.8707227  90.1771691  31.0306247  35.0314859
  90.7864832  29.8128380  35.6930070  94.0441296  26.3627427  36.6957347
  93.7878230  25.9624063  37.5265554  93.4194164  27.0771221  36.5707486
  98.3553633  29.1023500  39.2028638  97.7953191  29.1716690  39.9760200
  97.7497137  28.9264485  38.4828134  81.4248842  40.5360228  40.9546824
  81.3081226  41.4805660  40.8525515  80.6041289  40.2333789  41.3432623
  91.3125377  35.2610363  31.8003417  92.1470981  34.8291562  31.6180892
  91.1509720  35.0892377  32.7280311  90.9671269  31.7642477  33.1659756
  90.9120073  31.5986748  32.2248200  90.3417324  32.4718510  33.3221946
  75.7563784  27.0010541  46.9921178  76.4022648  26.4909495  47.4808404
  75.5480935  27.7379223  47.5664604  88.2817176  34.0691388  52.4913319
  89.1508336  34.2432041  52.1299954  87.8023928  34.8885805  52.3689048
  84.2767394  21.2650586  32.7445075  84.2646064  22.2092426  32.9013346
  85.1690816  21.0820731  32.4504536  82.4503356  41.1888489  44.1702753
  83.3530603  41.2212100  44.4869248  82.2240726  40.2588940  44.1849088
  84.2056958  39.9419476  40.8312831  83.2552589  39.9421338  40.7177204
  84.5089445  39.1952211  40.3148866  88.0919514  17.8593362  36.9991011
  87.3251910  17.3051849  37.1447694  88.5030219  17.9315231  37.8605163
  80.0961275  24.1478158  51.0896193  80.9592736  23.7914963  51.2999517
  79.5226686  23.8092053  51.7771597  99.9409652  45.7780014  41.8958594
 100.5788062  45.6586762  41.1921934  99.8230495  46.7260858  41.9546546
  96.7499358  45.7307443  41.8320118  96.4117870  45.6148507  40.9440653
  97.6189126  45.3298608  41.8121125  92.6086174  47.5842919  37.8217009
  92.0451039  47.4932856  37.0533297  92.4938569  46.7642823  38.3019502
  97.2319141  46.8842294  47.7906324  97.2207782  46.4895093  46.9186828
  97.3939781  46.1508367  48.3840095  90.1550606  49.0794111  40.6601230
  90.9471898  48.7384935  40.2447529  90.3947256  49.1889086  41.5803383
  98.1885733  51.2513887  33.1331474  97.5373712  51.8367967  32.7465488
  98.9830095  51.7820082  33.1926512  92.1141360  48.3403024  33.5318609
  92.8872236  47.7932011  33.3931484  92.4666759  49.2047273  33.7433070
  93.9526402  49.6679406  46.7385508  93.6616268  50.5725037  46.6232174
  94.5883387  49.7095934  47.4529577  94.8782609  47.0456255  43.3286868
  95.4746181  46.8212277  42.6143830  94.9357581  46.3041000  43.9312315
  94.4507638  44.4995690  31.1637059  94.7033158  43.9777211  30.4020522
  93.5132197  44.3361835  31.2663742  99.4950920  43.5031468  38.9711802
 100.2814010  43.0850891  38.6202219  99.7589625  44.4077560  39.1393450
  99.6660998  48.9404319  33.6700459  99.0306831  49.0138945  34.3821363
  99.3358404  49.5297917  32.9919538 104.8959347  43.4406701  39.8744780
 105.6284519  42.8705918  40.1082610 104.1398703  43.0528302  40.3151286
  94.1703926  46.4023796  33.3661433  94.0540184  45.7268699  34.0342518
  94.2806186  45.9156170  32.5493587  96.5135467  45.8633943  37.0708123
  96.1493674  45.3364564  37.7821044  97.3702583  45.4732412  36.8974608
 102.4184768  37.1528276  44.3339389 102.0868093  38.0223687  44.1100604
 101.8230381  36.8364560  45.0133419  96.1540954  40.8923843  32.0669471
  96.3215357  41.7604079  32.4339942  95.9638123  41.0551124  31.1430760
  98.9116287  49.3540822  43.7335302  98.6117010  50.2565860  43.6251109
  98.5667347  49.0873005  44.5856454  92.3628769  45.8054618  39.7672006
  91.4379265  45.6730833  39.9749698  92.6113182  46.5848838  40.2641948
 102.3113431  41.8723362  41.4132739 101.4030308  41.8038770  41.1191500
 102.2601027  42.3495307  42.2414564  96.1330175  43.3481500  33.0516138
  96.0129800  43.7938551  33.8901618  95.4382763  43.6966818  32.4929676
  89.7237580  45.4487892  40.6015795  89.8529961  45.7022371  41.5155207
  89.0435031  46.0415600  40.2820450  93.8937067  56.1185142  36.7006269
  93.8161097  57.0692967  36.7794750  93.2898711  55.7731014  37.3581196
  96.3854297  43.2913007  49.3567636  95.6087631  43.8506927  49.3470501
  97.0244860  43.7769790  49.8782506 104.1775078  40.0739800  43.1910613
 103.5349458  40.3672333  42.5450407 103.6730006  39.9592720  43.9963810
 101.8315241  43.8202973  33.8796472 102.7433097  44.0530360  33.7044170
 101.3224888  44.4040018  33.3171551  94.6400669  46.0998461  48.9185603
  95.3815354  46.6383505  48.6420427  93.9337655  46.7264749  49.0757155
 100.1156009  48.2427601  47.5157765 100.5239365  47.8010012  46.7712397
  99.3933270  47.6680229  47.7691958  96.4687079  43.1800208  44.8891322
  97.3148274  43.6039621  45.0325971  96.4085717  42.5233832  45.5829885
 100.4384824  48.8028792  41.2710054  99.8093686  48.9674506  40.5686121
 100.0510486  49.2170401  42.0421018 104.3174055  49.7383230  38.6254417
 103.6325094  50.1182131  38.0751451 104.4017905  50.3478556  39.3586365
  99.6186524  40.8404576  46.5472495  99.3747456  41.5946637  46.0106771
  99.8946455  41.2189924  47.3819742 101.5724987  47.3843189  45.2249761
 101.7841882  48.0274949  44.5484142 101.5254735  46.5505505  44.7571691
  99.1751216  39.9961009  42.1286333  98.3135695  40.2942263  42.4203071
  99.2013651  40.2131408  41.1967366  95.9912785  48.5403200  38.5360139
  96.4551131  48.8190903  37.7464761  95.7269584  47.6386644  38.3533229
  92.8836866  48.0874681  41.4739902  93.4538224  48.5161950  40.8357386
  93.4744978  47.8057266  42.1724088  94.9281671  44.6626352  35.3449704
  95.6305715  45.1147396  35.8123630  94.5962300  44.0210171  35.9729597
  93.3762033  43.2538109  49.7200913  92.7460694  43.9354390  49.9536310
  93.2698121  43.1421190  48.7754051  88.6707005  42.9209905  40.6466837
  87.8806059  43.1767433  40.1706948  89.1618253  43.7358243  40.7518878
 102.6870815  50.2615144  43.3972118 103.5088259  49.8595331  43.1154800
 102.6833218  50.1583378  44.3488234  90.6221751  43.2854484  37.6050314
  89.8252914  43.3973178  38.1233810  90.3947343  43.6241136  36.7391205
  96.4527418  49.8099187  45.5532829  96.5171851  50.2719595  46.3891001
  95.7438342  49.1796552  45.6815139  86.9544708  43.1740395  43.0781828
  87.2052747  44.0587405  43.3439404  87.4904257  42.9944997  42.3056920
  96.1675436  51.4767295  35.4211809  96.0321111  52.3218831  35.8496657
  96.7085249  51.6786573  34.6577743  92.6542776  37.5558875  52.0826164
  92.2609721  37.0025073  52.7573808  93.4708916  37.8669453  52.4732682
  89.6204833  48.9942733  35.9939734  90.1329354  49.7885983  36.1445299
  90.2727546  48.2969023  35.9273336  91.4299718  52.1108489  38.0762487
  91.6066347  53.0326454  37.8883471  92.2256552  51.7966908  38.5056867
  95.5710737  38.9716754  49.6746421  96.3120450  39.5723907  49.5950883
  95.8028660  38.2294392  49.1164463  90.7152075  44.1573121  47.9524650
  90.6005590  43.2558378  48.2531749  89.8596592  44.4036818  47.6009467
  97.7943912  52.0990861  49.5512151  97.3507767  51.3127240  49.2333056
  98.4561126  52.2870012  48.8856042  92.5531034  53.6286663  44.0772830
  93.1038459  53.5003726  43.3049824  91.7142510  53.9281552  43.7267722
  96.3498205  49.8937791  48.4217061  96.8826541  49.1326079  48.1916369
  95.8212286  49.6011443  49.1641215  99.5167900  34.9997857  43.9510702
  99.1732169  35.8899498  43.8749813  99.8846862  34.8099514  43.0880287
  87.5853750  47.3231387  36.7699305  88.4228972  47.7328396  36.5533012
  87.7632018  46.3830829  36.7399499  99.4818182  44.9906468  32.4583138
  98.9664806  45.7611073  32.6971525  99.2095491  44.3171604  33.0816199
  97.0665293  39.8356169  37.5168376  96.2106890  39.4463019  37.3374015
  97.4792245  39.9148129  36.6568162  98.5964440  37.3702512  41.9159936
  98.0929236  37.3332647  41.1027741  98.8895047  38.2795255  41.9756592
  94.8407326  37.4541242  40.9226117  95.7060323  37.2584050  40.5632007
  94.9084835  37.2251593  41.8495474 104.4552456  47.7438823  34.3936311
 103.6781899  47.4049982  33.9491473 105.1343937  47.7491446  33.7191276
  99.2704486  42.8633560  34.2842919  98.9654621  43.1779709  35.1353062
 100.2234928  42.9414980  34.3270252  97.7150917  49.0223783  35.9335873
  97.1872279  48.2876543  35.6209110  97.2138420  49.7998460  35.6875841
 102.6943763  47.2172804  41.0502919 102.0367438  47.9072065  41.1383048
 103.4984163  47.6069236  41.3936905  92.4469645  39.6843450  38.2942484
  93.0213397  39.4618631  37.5615677  93.0340627  39.7532144  39.0471086
 101.5049222  45.5717176  39.1006861 102.0181104  46.2047168  39.6028571
 102.1550446  44.9718372  38.7350221  92.7739232  41.7147911  32.3138370
  91.9376544  42.0522597  32.6347644  92.6344002  41.5796890  31.3765507
  94.7492313  36.5584698  37.0217554  94.0956725  36.2433716  36.3974168
  94.7072787  35.9360439  37.7477377  95.8603518  46.8403994  28.9370846
  94.9530579  46.6093247  29.1361995  96.3574550  46.0441613  29.1244827
  98.7671596  55.5501501  31.8567532  98.0933295  55.8533197  32.4652490
  99.1537418  56.3530581  31.5072989  97.9830053  43.0466632  41.3465201
  97.0652614  43.2681579  41.1886889  98.3990197  43.1212942  40.4876909
  98.7665101  44.4458048  36.4767882  99.5136920  44.9579445  36.1675004
  99.0356690  44.1242100  37.3372275  97.0391751  46.9416588  33.4594836
  96.1302970  46.6575621  33.5567306  97.0686835  47.3615667  32.5998143
 102.2711018  50.5523178  37.2286003 101.8173346  49.7114088  37.2851194
 101.6404985  51.1884576  37.5660784 101.2143938  41.4815164  38.4586671
 100.4766695  40.9692550  38.7896913 101.4670712  41.0415546  37.6469948
 100.7143958  52.3899675  38.1635822 101.0066932  52.9504732  37.4448187
 101.2242578  52.6828236  38.9188981 101.3155565  34.2591416  39.0528440
 101.6214442  33.3988779  38.7654355 102.0408170  34.8509036  38.8527434
  87.6079921  44.6622103  37.4410038  87.4104321  44.0691463  36.7161105
  87.0526585  44.3574313  38.1585977  95.5876645  44.5545209  39.5604631
  95.6425255  43.6019045  39.4847108  94.7767847  44.7104648  40.0445930
  96.7367839  48.4825332  30.7982914  96.2987269  47.7661191  30.3388552
  97.4778280  48.7101447  30.2368006  93.5269005  43.1722269  37.3195010
  92.7136871  43.4716439  37.7260202  94.0227999  42.7777958  38.0369492
  99.1243217  43.6364093  46.1509904  99.4792604  43.8635566  47.0104370
  99.7715348  43.9682470  45.5287159 104.8540954  46.7582529  36.8559233
 104.7158852  46.9484125  35.9280422 104.4977172  47.5201912  37.3127284
  93.0183080  40.7440624  42.9356245  93.6582459  40.6029383  42.2379208
  92.1860610  40.4575138  42.5594847 104.8810333  48.8259056  41.8670505
 105.3146840  48.7334345  42.7153559 105.5941914  48.8016557  41.2290521
  93.7943384  50.0443055  39.0491238  94.5883982  49.5493375  38.8473812
  93.0835076  49.5160918  38.6858943  98.6138228  52.4261150  43.4003605
  98.6675250  52.9952087  44.1681321  97.7453009  52.5963035  43.0357642
  90.1026147  44.1886136  35.1250990  89.1723735  44.1270592  35.3420952
  90.1983619  43.6662089  34.3287631  90.0211696  40.7140949  37.7129232
  90.2818513  41.6286283  37.6038392  90.8428868  40.2465392  37.8625845
  91.4936621  42.1278706  44.8828056  92.1659675  41.9196069  44.2340705
  90.6666408  41.9300792  44.4433289 105.7425883  48.8682757  44.4003390
 105.9361773  49.7728567  44.6462665 105.6426501  48.4090176  45.2341975
  97.3962193  38.7540647  46.8993717  96.7490109  39.4530597  46.8058194
  98.1663209  39.1876791  47.2669965 100.8040991  49.0189500  49.9744271
 100.6526498  48.7900051  49.0574354 100.7945671  49.9760101  49.9875616
  97.5726328  46.5921412  44.9590537  98.5018388  46.7432572  44.7859504
  97.1517358  46.6805433  44.1039184  96.3714660  50.6172077  42.7289075
  96.2325745  50.2490861  43.6015013  95.5829256  51.1319716  42.5573032
  96.9662812  55.7181173  34.0714611  97.1414567  55.2469216  34.8860234
  96.2795600  56.3446939  34.2995872  97.9219875  49.9953679  40.1177912
  97.5869707  49.9554449  41.0135562  97.4223820  49.3298395  39.6448323
  91.8964119  45.4021309  45.6430494  91.7583917  44.6701548  46.2442033
  92.8069042  45.3130210  45.3614681 100.8579066  47.3409714  30.3914972
 100.2408237  46.6156542  30.2948025 100.3895555  48.1019074  30.0482046
  94.5246419  45.1141269  45.1314173  95.2346038  44.4734461  45.0900792
  94.4815728  45.3654164  46.0540354 102.5133198  52.0508622  48.0520752
 102.4545744  51.3667842  47.3851335 102.9152716  52.7927612  47.6001378
  93.2375353  42.1006487  46.9509813  92.7012710  41.6497225  47.6031409
  92.6492062  42.2352395  46.2080277  91.5323897  58.8670536  40.8454471
  91.7720495  59.4989060  41.5233490  90.6893093  58.5158576  41.1319831
  92.6477612  41.5595138  29.5136276  91.7707079  41.4383939  29.1498523
  93.1235365  40.7681216  29.2615165 102.5150605  50.0148206  46.2834732
 101.6277384  49.6774128  46.4061131 103.0849156  49.2831237  46.5203497
  84.1679752  46.3472298  39.6077783  84.8550792  46.0334028  39.0198799
  84.0127881  47.2513662  39.3345035  88.9714475  41.2362494  44.0362807
  88.8872663  40.6288164  43.3013217  88.1497181  41.7271513  44.0372304
  96.0451759  54.6749658  43.2495975  95.9721930  55.4804630  43.7615280
  95.6029152  54.8741624  42.4243997  95.8341538  53.9121428  36.7598797
  95.0509060  54.4543109  36.8537021  96.5334284  54.4295408  37.1593038
  99.1438188  39.7216058  39.4033002  99.6406888  38.9686020  39.0834072
  98.3725170  39.7580375  38.8376212  98.5050442  54.5736492  45.4054134
  99.2178414  55.2083957  45.3330035  98.0140471  54.6700358  44.5894136
 100.2267969  48.4787745  36.9771426  99.2924248  48.5989208  36.8076130
 100.4044638  47.5760212  36.7131435  95.7273157  41.8633441  39.1304687
  95.3570945  41.3104481  39.8185592  96.2232250  41.2591574  38.5779687
 103.6140521  44.3205064  37.5121460 104.0800973  45.1533056  37.4381762
 104.0648021  43.8550046  38.2166718  93.5562356  52.3230936  46.2259705
  94.2571815  52.9567419  46.3789099  93.0857471  52.6645667  45.4655344
 101.6816752  50.6648886  34.5107612 101.9576596  50.5505480  35.4201486
 100.8121250  50.2666370  34.4719785 101.5857183  36.6885651  41.5512361
 100.6720263  36.9189878  41.7194568 102.0150285  36.7724095  42.4026393
 101.3563642  44.8775543  44.0512255 100.7035092  45.1251451  43.3964708
 101.7344022  44.0639681  43.7174732  98.3170816  54.9135236  38.1540425
  98.4993210  54.0956892  38.6168178  99.1403802  55.1302929  37.7165315
  98.6512981  53.8403422  35.4155474  99.1800748  53.3295876  34.8025636
  98.9141201  53.5245952  36.2801007  97.4051215  45.6195354  50.5378292
  96.7291852  45.5189484  51.2080667  98.2278849  45.4634568  51.0014289
  89.1530074  51.8567291  43.1590807  89.7383511  51.1110979  43.2918712
  88.9554912  52.1671248  44.0427471  92.0068729  54.8918538  38.1753250
  91.3379104  55.3764666  37.6917290  91.8681599  55.1387759  39.0896628
  83.7447729  44.4272891  41.8795251  83.7831828  43.8936482  42.6732369
  83.2388021  43.9008097  41.2606228  96.1473998  56.9262282  44.7735908
  96.6992306  57.0893903  45.5384993  96.4880191  57.5166720  44.1015933
  91.1238491  39.2737432  45.3757793  91.1879817  40.1352263  44.9635191
  91.0605611  38.6611433  44.6430151  90.5990763  41.3460564  49.0230827
  91.2262802  40.9637641  49.6368351  89.7418682  41.1274766  49.3886520
 100.9984872  51.7523539  50.6284563 101.5424776  52.3653498  50.1339517
 100.4171717  52.3103118  51.1451576  87.3756306  43.1536993  34.9549182
  87.6709747  42.2447672  34.9016236  86.4744342  43.1324733  34.6330184
  99.2842385  54.8744257  41.7599590  99.1593524  54.0733997  41.2510536
  99.9421476  55.3690451  41.2713560  90.9050553  41.2292990  40.9376731
  90.1837139  41.8428958  40.7984204  91.6943809  41.7650755  40.8593377
 101.3477293  52.6753277  43.3879140 100.4007629  52.5558629  43.3157467
 101.6960066  51.7875775  43.4705402  93.7076867  38.5647416  47.2117382
  94.2311269  38.8109713  47.9743692  93.4889200  39.3967451  46.7920520
  89.1044148  40.8351091  35.0788507  88.7756854  39.9548470  34.8963613
  89.4583518  40.7798760  35.9664896  98.3523727  52.4705994  39.5883493
  98.2048689  51.5422701  39.7691063  99.1777220  52.4926084  39.1040568
  92.2185971  41.1224061  35.4463985  92.5582043  41.6509982  34.7242593
  92.6658091  41.4604467  36.2222551 101.9557848  53.2934552  40.6748365
 102.8804396  53.0877414  40.5372817 101.7873152  53.0450954  41.5837707
  94.9129412  39.5061111  44.8967053  94.5726232  38.7068925  45.2987733
  94.2068418  39.8062822  44.3243886  95.5645884  36.5910424  43.3494376
  96.3871953  36.1170902  43.2273266  95.8083947  37.3700908  43.8493062
  94.2054118  39.6198682  33.6457278  94.9262481  39.9979935  33.1420994
  93.5819422  40.3387559  33.7492256  98.3485241  40.3243831  34.5815610
  98.5648855  41.2068469  34.2804438  97.8679308  39.9330045  33.8521252
  93.0884462  43.2829545  41.1586355  92.9429043  43.5969848  42.0510636
  92.6109666  43.9014445  40.6057253  94.9480845  40.2732093  41.2067244
  94.9342414  39.3773186  40.8699542  95.6653273  40.2802756  41.8405530
  96.8006976  40.7069433  43.2520371  96.5424754  41.6286503  43.2504702
  96.2692016  40.3099867  43.9420836 101.7453165  53.8120220  36.0310457
 101.9190042  53.2466642  35.2784309 102.2382056  54.6121115  35.8489947
  87.5630124  45.8234889  44.0974016  87.0183593  46.5994697  44.2294290
  88.4409474  46.1705693  43.9393137  94.3517741  39.1546473  36.4754814
  94.4733652  38.2263119  36.6745702  94.0619784  39.1685159  35.5633130
  97.2208932  36.8401383  39.6121534  97.2430628  36.9040716  38.6573514
  97.6376991  36.0005892  39.8062040 102.7328337  53.1286984  33.1307355
 103.4279242  53.7493677  33.3494670 103.0751487  52.2782335  33.4059733
  88.3496146  44.9504785  46.9904173  87.6077882  45.0987421  47.5768803
  88.0288891  45.2113051  46.1270922 104.6319760  50.5786690  34.6594686
 105.1571084  50.9173963  33.9344006 104.5442113  49.6433705  34.4757821
  96.2939809  54.4920763  46.7884563  96.6026935  54.2469910  47.6607262
  97.0915291  54.6967402  46.3003433  96.3160421  56.6458673  39.0189939
  95.8765411  56.1535052  39.7122796  97.0668538  56.1031641  38.7782014
  88.7952760  52.8370214  39.0214567  89.6210780  52.5373986  38.6413211
  88.4446812  52.0677836  39.4704356  93.7634293  52.1896682  41.0912241
  93.1414302  51.5267387  40.7914469  94.4339160  52.2157814  40.4085889
  86.9961365  50.7556540  39.9803501  86.1593273  50.3278715  39.7987502
  86.9685010  50.9488984  40.9174292  93.8358821  40.6678470  50.6844747
  93.8846976  41.5440593  50.3022516  94.3781335  40.1255863  50.1116390
 104.3213666  51.2119593  49.9645884 103.5309210  51.1943732  49.4250383
 104.0847021  51.7507887  50.7194920 104.4411541  48.0612060  47.2778612
 104.4909546  47.8962067  48.2194135 104.3325465  47.1939319  46.8876493
  93.3247800  50.7400605  34.5670701  93.4735920  51.4236070  33.9137374
  94.1314244  50.7205696  35.0820157 101.7315304  44.0442988  48.5937919
 102.6325167  43.9049453  48.3021917 101.8063278  44.2097443  49.5336097
  96.0658109  41.4209843  47.4391105  95.1961419  41.7143409  47.1673694
  96.3017589  42.0050288  48.1598369 105.9429738  50.4809001  47.5220634
 105.6514547  50.8438982  48.3584095 105.3301870  49.7676010  47.3433966
 104.1916926  45.6041616  45.9900692 104.6671048  45.7969262  45.1819543
 103.2682492  45.6600802  45.7444076  91.0800433  46.7665783  35.5731770
  90.8346475  45.8628113  35.7711980  91.2496348  46.7682934  34.6311248
  98.7697143  37.6389459  44.9556526  99.2879087  38.3750486  44.6303014
  98.4152276  37.9453453  45.7903285  90.3496081  42.4994141  33.0717932
  89.6565326  42.5738496  32.4157968  90.1047833  41.7354484  33.5939449
  99.0209737  34.0589742  40.4757422  99.3011491  33.3912931  41.1017849
  99.8060344  34.2518838  39.9632086  96.8243206  53.2348736  32.0382449
  96.2517173  53.8538923  31.5852921  97.3975999  53.7848098  32.5722371
 102.8918595  42.4807376  44.2228998 103.8436018  42.5805474  44.2441222
 102.7222046  41.6885645  44.7327082 100.9132975  39.5662959  44.4088398
 100.3182907  39.8467972  43.7134887 100.6282672  40.0556860  45.1805140
 100.0440465  53.5185886  33.1691031 100.9771139  53.4531448  33.3723907
  99.9563678  54.3542153  32.7105564 102.6728482  52.8351756  30.1294979
 102.5942114  52.5011620  31.0230736 103.4938149  53.3273524  30.1286451
 105.3706673  45.7013496  43.3371297 105.3382993  44.7629496  43.5230981
 105.9807297  45.7797532  42.6037122  97.2090004  44.5709549  29.3798501
  98.1549109  44.4415757  29.4486919  96.8304249  43.8324211  29.8567929
 105.5201162  42.4924539  43.3829580 105.0040210  41.7082996  43.1959509
 106.4041110  42.1643256  43.5476100 103.1811889  36.2365555  39.3425393
 102.9836710  35.9280643  40.2268725 103.7911594  36.9627194  39.4723323
  97.0928697  48.6227295  50.8399158  98.0131706  48.8005894  51.0339205
  97.0578280  47.6783340  50.6878857  95.3932921  42.4959525  29.3153386
  94.4864377  42.1992638  29.3916100  95.6708902  42.1989343  28.4487673
  86.3110862  43.8165888  39.7652433  85.9913646  42.9631197  39.4726807
  85.7644290  44.0314467  40.5210400  90.0890769  46.5328329  43.4821939
  90.3076779  47.4645437  43.5009973  90.5016543  46.1736304  44.2676743
  97.0094987  37.0396415  35.4697628  96.1995715  36.6943500  35.8452874
  97.6979404  36.7303958  36.0585239  98.9385535  36.1174462  37.0921924
  99.4916574  36.5369915  37.7511948  99.1755622  35.1910210  37.1344880
  94.9618635  42.1061535  52.8724688  94.8615361  43.0555892  52.8036779
  94.7440177  41.7779774  52.0000758  94.1631706  39.3546460  29.4565366
  95.0250870  39.6801359  29.7161183  94.3482050  38.5677956  28.9438431
  86.1799122  47.4368800  41.7345554  85.4862593  47.0222753  41.2215509
  86.9272113  47.4789336  41.1378973 102.3164342  38.2274987  36.6000589
 101.7363011  38.8859791  36.2178641 102.0500275  37.4052331  36.1888006
 100.7667909  37.6280044  38.8021909 101.2667687  37.7396579  37.9936228
 101.4103517  37.3241097  39.4422717  94.8249905  45.5358674  51.6889750
  94.3416986  46.3359034  51.8953639  94.9110844  45.5466619  50.7357194
  88.0935864  47.3687054  39.6111569  88.0706552  47.4674741  38.6593452
  88.4036501  48.2152205  39.9328735  90.7523242  49.4263209  43.7258184
  91.7066496  49.3947151  43.6588115  90.5535766  48.9653832  44.5408410
  91.3422624  47.9964325  46.2928981  92.1615513  48.4908403  46.3163819
  91.6159432  47.0796293  46.2646549 101.0989220  40.3875077  35.6556937
 100.2115075  40.6724728  35.4377132 101.5143209  40.2268840  34.8084214
 104.4503757  40.4121598  39.3711276 105.2264147  40.9018051  39.6435893
 103.7251891  40.8379652  39.8283146  89.1073471  54.9682828  40.7428382
  88.9727939  54.2083229  40.1766380  88.6905533  55.6923728  40.2757170
 100.2432434  50.1519752  29.7504957 100.9468284  50.3569754  30.3662613
  99.5195083  50.7196514  30.0154040 101.0730244  45.9029613  35.8707227
 101.0165446  46.3598164  35.0314859 101.6258587  45.1420298  35.6930070
 104.8835050  41.6919345  36.6957347 104.6271984  41.2915981  37.5265554
 104.2587918  42.4063139  36.5707486  92.2642597  55.8652145  40.9546824
  92.1474981  56.8097578  40.8525515  91.4435043  55.5625707  41.3432623
 102.1519131  50.5902281  31.8003417 102.9864735  50.1583479  31.6180892
 101.9903474  50.4184295  32.7280311 101.8065023  47.0934394  33.1659756
 101.7513827  46.9278666  32.2248200 101.1811079  47.8010427  33.3221946
  86.5957538  42.3302459  46.9921178  87.2416402  41.8201413  47.4808404
  86.3874690  43.0671140  47.5664604  99.1210931  49.3983306  52.4913319
  99.9902090  49.5723958  52.1299954  98.6417682  50.2177723  52.3689048
  95.1161149  36.5942503  32.7445075  95.1039819  37.5384343  32.9013346
  96.0084571  36.4112649  32.4504536  93.2897111  56.5180407  44.1702753
  94.1924358  56.5504017  44.4869248  93.0634481  55.5880858  44.1849088
  95.0450713  55.2711394  40.8312831  94.0946344  55.2713255  40.7177204
  95.3483199  54.5244128  40.3148866  98.9313268  33.1885280  36.9991011
  98.1645664  32.6343767  37.1447694  99.3423973  33.2607149  37.8605163
  90.9355029  39.4770076  51.0896193  91.7986491  39.1206881  51.2999517
  90.3620440  39.1383971  51.7771597 103.4479928  62.9134837  37.8217009
 102.8844793  62.8224774  37.0533297 103.3332323  62.0934741  38.3019502
 100.9944360  64.4086028  40.6601230 101.7865652  64.0676853  40.2447529
 101.2341010  64.5181003  41.5803383 102.9535114  63.6694941  33.5318609
 103.7265990  63.1223929  33.3931484 103.3060513  64.5339191  33.7433070
 104.7920157  64.9971324  46.7385508 104.5010023  65.9016955  46.6232174
 105.4277141  65.0387851  47.4529577 105.7176364  62.3748172  43.3286868
 106.3139936  62.1504195  42.6143830 105.7751335  61.6332918  43.9312315
 105.2901392  59.8287608  31.1637059 105.5426913  59.3069129  30.4020522
 104.3525951  59.6653753  31.2663742 105.0097681  61.7315714  33.3661433
 104.8933939  61.0560617  34.0342518 105.1199941  61.2448087  32.5493587
 103.2022523  61.1346536  39.7672006 102.2773020  61.0022750  39.9749698
 103.4506937  61.9140755  40.2641948 100.5631334  60.7779810  40.6015795
 100.6923716  61.0314289  41.5155207  99.8828786  61.3707518  40.2820450
 104.7330822  71.4477060  36.7006269 104.6554851  72.3984885  36.7794750
 104.1292465  71.1022932  37.3581196 105.4794424  61.4290378  48.9185603
 106.2209108  61.9675422  48.6420427 104.7731409  62.0556667  49.0757155
 103.7230621  63.4166599  41.4739902 104.2931978  63.8453867  40.8357386
 104.3138733  63.1349184  42.1724088 105.7675426  59.9918270  35.3449704
 106.4699469  60.4439314  35.8123630 105.4356054  59.3502089  35.9729597
 104.2155787  58.5830027  49.7200913 103.5854448  59.2646307  49.9536310
 104.1091875  58.4713108  48.7754051  99.5100760  58.2501823  40.6466837
  98.7199814  58.5059351  40.1706948 100.0012007  59.0650160  40.7518878
 101.4615505  58.6146402  37.6050314 100.6646669  58.7265096  38.1233810
 101.2341097  58.9533054  36.7391205  97.7938463  58.5032313  43.0781828
  98.0446501  59.3879323  43.3439404  98.3298011  58.3236915  42.3056920
 103.4936530  52.8850792  52.0826164 103.1003476  52.3316991  52.7573808
 104.3102671  53.1961371  52.4732682 100.4598588  64.3234651  35.9939734
 100.9723109  65.1177901  36.1445299 101.1121301  63.6260941  35.9273336
 102.2693473  67.4400407  38.0762487 102.4460101  68.3618372  37.8883471
 103.0650306  67.1258826  38.5056867 101.5545829  59.4865039  47.9524650
 101.4399344  58.5850296  48.2531749 100.6990347  59.7328736  47.6009467
 103.3924788  68.9578581  44.0772830 103.9432213  68.8295644  43.3049824
 102.5536264  69.2573470  43.7267722  98.4247505  62.6523305  36.7699305
  99.2622727  63.0620313  36.5533012  98.6025772  61.7122747  36.7399499
 105.6801080  52.7833159  40.9226117 106.5454077  52.5875968  40.5632007
 105.7478589  52.5543511  41.8495474 103.2863399  55.0135367  38.2942484
 103.8607151  54.7910549  37.5615677 103.8734382  55.0824062  39.0471086
 103.6132987  57.0439828  32.3138370 102.7770299  57.3814515  32.6347644
 103.4737756  56.9088808  31.3765507 105.5886067  51.8876616  37.0217554
 104.9350480  51.5725633  36.3974168 105.5466541  51.2652357  37.7477377
  98.4473676  59.9914020  37.4410038  98.2498076  59.3983381  36.7161105
  97.8920340  59.6866230  38.1585977 106.4270400  59.8837127  39.5604631
 106.4819009  58.9310963  39.4847108 105.6161602  60.0396566  40.0445930
 104.3662759  58.5014186  37.3195010 103.5530625  58.8008357  37.7260202
 104.8621754  58.1069875  38.0369492 103.8576834  56.0732542  42.9356245
 104.4976214  55.9321301  42.2379208 103.0254365  55.7867055  42.5594847
 104.6337138  65.3734972  39.0491238 105.4277737  64.8785293  38.8473812
 103.9228831  64.8452836  38.6858943 100.9419902  59.5178054  35.1250990
 100.0117490  59.4562510  35.3420952 101.0377374  58.9954007  34.3287631
 100.8605451  56.0432867  37.7129232 101.1212268  56.9578200  37.6038392
 101.6822623  55.5757310  37.8625845 102.3330376  57.4570624  44.8828056
 103.0053429  57.2487986  44.2340705 101.5060162  57.2592710  44.4433289
 102.7357873  60.7313227  45.6430494 102.5977671  59.9993466  46.2442033
 103.6462797  60.6422127  45.3614681 105.3640174  60.4433186  45.1314173
 106.0739792  59.8026379  45.0900792 105.3209482  60.6946081  46.0540354
 104.0769108  57.4298404  46.9509813 103.5406465  56.9789143  47.6031409
 103.4885816  57.5644313  46.2080277 102.3717651  74.1962454  40.8454471
 102.6114250  74.8280978  41.5233490 101.5286848  73.8450494  41.1319831
 103.4871367  56.8887056  29.5136276 102.6100833  56.7675856  29.1498523
 103.9629120  56.0973134  29.2615165  95.0073507  61.6764215  39.6077783
  95.6944547  61.3625945  39.0198799  94.8521636  62.5805580  39.3345035
  99.8108229  56.5654412  44.0362807  99.7266418  55.9580082  43.3013217
  98.9890936  57.0563430  44.0372304 104.3956110  67.6522854  46.2259705
 105.0965570  68.2859337  46.3789099 103.9251225  67.9937585  45.4655344
  99.9923828  67.1859209  43.1590807 100.5777265  66.4402896  43.2918712
  99.7948667  67.4963165  44.0427471 102.8462484  70.2210456  38.1753250
 102.1772859  70.7056584  37.6917290 102.7075353  70.4679676  39.0896628
  94.5841483  59.7564809  41.8795251  94.6225583  59.2228399  42.6732369
  94.0781776  59.2300014  41.2606228 101.9632245  54.6029349  45.3757793
 102.0273572  55.4644180  44.9635191 101.8999366  53.9903351  44.6430151
 101.4384518  56.6752482  49.0230827 102.0656557  56.2929559  49.6368351
 100.5812437  56.4566684  49.3886520  98.2150061  58.4828911  34.9549182
  98.5103502  57.5739589  34.9016236  97.3138096  58.4616650  34.6330184
 101.7444308  56.5584908  40.9376731 101.0230893  57.1720875  40.7984204
 102.5337563  57.0942672  40.8593377 104.5470621  53.8939334  47.2117382
 105.0705023  54.1401631  47.9743692 104.3282954  54.7259369  46.7920520
  99.9437902  56.1643009  35.0788507  99.6150608  55.2840388  34.8963613
 100.2977273  56.1090677  35.9664896 103.0579725  56.4515978  35.4463985
 103.3975798  56.9801900  34.7242593 103.5051846  56.7896385  36.2222551
 105.7523166  54.8353029  44.8967053 105.4119987  54.0360842  45.2987733
 105.0462172  55.1354740  44.3243886 105.0447873  54.9490600  33.6457278
 105.7656235  55.3271853  33.1420994 104.4213177  55.6679477  33.7492256
 103.9278217  58.6121462  41.1586355 103.7822798  58.9261765  42.0510636
 103.4503420  59.2306363  40.6057253 105.7874600  55.6024010  41.2067244
 105.7736168  54.7065103  40.8699542 106.5047028  55.6094674  41.8405530
  98.4023879  61.1526807  44.0974016  97.8577347  61.9286615  44.2294290
  99.2803229  61.4997611  43.9393137 105.1911496  54.4838390  36.4754814
 105.3127407  53.5555037  36.6745702 104.9013538  54.4977076  35.5633130
  99.1889901  60.2796703  46.9904173  98.4471637  60.4279338  47.5768803
  98.8682645  60.5404968  46.1270922  99.6346515  68.1662132  39.0214567
 100.4604534  67.8665903  38.6413211  99.2840567  67.3969754  39.4704356
 104.6028048  67.5188600  41.0912241 103.9808057  66.8559305  40.7914469
 105.2732915  67.5449732  40.4085889  97.8355120  66.0848458  39.9803501
  96.9987028  65.6570632  39.7987502  97.8078765  66.2780901  40.9174292
 104.6752575  55.9970388  50.6844747 104.7240731  56.8732511  50.3022516
 105.2175089  55.4547781  50.1116390 104.1641555  66.0692523  34.5670701
 104.3129675  66.7527988  33.9137374 104.9707998  66.0497613  35.0820157
 101.9194188  62.0957701  35.5731770 101.6740230  61.1920031  35.7711980
 102.0890102  62.0974851  34.6311248 101.1889835  57.8286058  33.0717932
 100.4959080  57.9030413  32.4157968 100.9441587  57.0646402  33.5939449
 106.2326676  57.8251443  29.3153386 105.3258131  57.5284555  29.3916100
 106.5102657  57.5281261  28.4487673  97.1504616  59.1457806  39.7652433
  96.8307400  58.2923114  39.4726807  96.6038044  59.3606384  40.5210400
 100.9284524  61.8620247  43.4821939 101.1470533  62.7937355  43.5009973
 101.3410298  61.5028222  44.2676743 105.8012389  57.4353453  52.8724688
 105.7009116  58.3847810  52.8036779 105.5833931  57.1071692  52.0000758
 105.0025460  54.6838378  29.4565366 105.8644624  55.0093276  29.7161183
 105.1875805  53.8969874  28.9438431  97.0192876  62.7660718  41.7345554
  96.3256348  62.3514670  41.2215509  97.7665867  62.8081254  41.1378973
 105.6643659  60.8650592  51.6889750 105.1810741  61.6650952  51.8953639
 105.7504598  60.8758537  50.7357194  98.9329619  62.6978971  39.6111569
  98.9100307  62.7966659  38.6593452  99.2430255  63.5444122  39.9328735
 101.5916997  64.7555126  43.7258184 102.5460250  64.7239069  43.6588115
 101.3929520  64.2945750  44.5408410 102.1816379  63.3256242  46.2928981
 103.0009268  63.8200321  46.3163819 102.4553186  62.4088211  46.2646549
  99.9467225  70.2974746  40.7428382  99.8121693  69.5375147  40.1766380
  99.5299288  71.0215646  40.2757170 103.1036351  71.1944063  40.9546824
 102.9868735  72.1389495  40.8525515 102.2828797  70.8917625  41.3432623
  97.4351293  57.6594376  46.9921178  98.0810157  57.1493330  47.4808404
  97.2268444  58.3963058  47.5664604 104.1290865  71.8472325  44.1702753
 105.0318112  71.8795935  44.4869248 103.9028235  70.9172776  44.1849088
 105.8844467  70.6003311  40.8312831 104.9340098  70.6005173  40.7177204
 106.1876954  69.8536046  40.3148866 101.7748784  54.8061993  51.0896193
 102.6380245  54.4498798  51.2999517 101.2014195  54.4675888  51.7771597
 105.8467261  77.0056133  39.6077783 106.5338301  76.6917863  39.0198799
 105.6915390  77.9097498  39.3345035 105.4235238  75.0856726  41.8795251
 105.4619337  74.5520317  42.6732369 104.9175530  74.5591932  41.2606228
  69.8536389   5.2148823  27.5699778  70.0932987   5.8467347  28.2478796
  69.0105586   4.8636863  27.8565137  81.7692421   9.2613124  24.5462316
  81.2057286   9.1703061  23.7778604  81.6544816   8.4413028  25.0264809
  79.3156853  10.7564315  27.3846536  80.1078144  10.4155140  26.9692836
  79.5553503  10.8659291  28.3048690  87.3491979  12.9284092  19.8576781
  86.6979959  13.5138172  19.4710795  88.1436342  13.4590286  19.9171818
  81.2747606  10.0173229  20.2563915  82.0478482   9.4702216  20.1176791
  81.6273005  10.8817478  20.4678377  83.1132649  11.3449611  33.4630815
  82.8222515  12.2495242  33.3477481  83.7489633  11.3866139  34.1774884
  84.0388856   8.7226459  30.0532174  84.6352428   8.4982482  29.3389137
  84.0963827   7.9811205  30.6557622  88.0722534  11.0311026  30.4580608
  87.7723257  11.9336065  30.3496415  87.7273594  10.7643210  31.3101761
  81.5235016   7.4824823  26.4917313  80.5985512   7.3501037  26.6995004
  81.7719429   8.2619043  26.9887255  78.8843827   7.1258097  27.3261102
  79.0136208   7.3792576  28.2400513  78.2041278   7.7185805  27.0065757
  83.0543314  17.7955347  23.4251576  82.9767344  18.7463172  23.5040056
  82.4504958  17.4501219  24.0826502  89.5991070  10.4798997  27.9955360
  88.9699933  10.6444711  27.2931428  89.2116732  10.8940606  28.7666324
  93.4780302  11.4153435  25.3499724  92.7931340  11.7952336  24.7996757
  93.5624152  12.0248761  26.0831672  85.1519032  10.2173405  25.2605445
  85.6157378  10.4961108  24.4710068  84.8875830   9.3156849  25.0778536
  82.0443113   9.7644886  28.1985209  82.6144470  10.1932155  27.5602693
  82.6351225   9.4827471  28.8969394  91.8477062  11.9385349  30.1217425
  92.6694505  11.5365536  29.8400106  91.8439465  11.8353583  31.0733541
  85.6133665  11.4869392  32.2778135  85.6778098  11.9489800  33.1136307
  84.9044589  10.8566757  32.4060445  85.3281683  13.1537500  22.1457116
  85.1927358  13.9989036  22.5741963  85.8691495  13.3556777  21.3823049
  78.7811080  10.6712938  22.7185041  79.2935601  11.4656188  22.8690605
  79.4333793   9.9739228  22.6518642  80.5905965  13.7878694  24.8007794
  80.7672593  14.7096659  24.6128778  81.3862798  13.4737113  25.2302174
  86.9550159  13.7761066  36.2757458  86.5114013  12.9897445  35.9578362
  87.6167373  13.9640217  35.6101349  81.7137280  15.3056868  30.8018136
  82.2644706  15.1773931  30.0295130  80.8748756  15.6051757  30.4513029
  89.0531397  14.0563866  34.3038859  89.0349873  14.8772747  33.8119128
  89.9751317  13.9317941  34.5289000  85.5104451  11.5707996  35.1462367
  86.0432788  10.8096284  34.9161675  84.9818533  11.2781648  35.8886522
  76.7459997   9.0001592  23.4944611  77.5835219   9.4098600  23.2778319
  76.9238265   8.0601034  23.4644805  86.8757164  10.6993988  22.6581179
  86.3478526   9.9646748  22.3454417  86.3744667  11.4768665  22.4121148
  87.9277843  17.2271706  18.5812839  87.2539542  17.5303402  19.1897796
  88.3143665  18.0300786  18.2318296  91.4317265  12.2293383  23.9531310
  90.9779592  11.3884293  24.0096501  90.8011232  12.8654781  24.2906090
  89.8750204  14.0669880  24.8881128  90.1673179  14.6274937  24.1693494
  90.3848825  14.3598441  25.6434287  76.7686168   6.3392307  24.1655345
  76.5710568   5.7461668  23.4406411  76.2132832   6.0344518  24.8831284
  84.8383830  14.8450231  25.9774581  84.7960008  15.0711077  25.0483113
  85.7546528  14.6113605  26.1260383  82.9549630  11.7213260  25.7736544
  83.7490229  11.2263580  25.5719119  82.2441323  11.1931123  25.4104250
  87.7744475  14.1031355  30.1248912  87.8281497  14.6722291  30.8926628
  86.9059256  14.2733240  29.7602949  89.9647238  10.6959704  36.6989577
  89.8132745  10.4670256  35.7819661  89.9551918  11.6530306  36.7120922
  85.5320906  12.2942282  29.4534381  85.3931992  11.9261066  30.3260319
  84.7435503  12.8089921  29.2818339  86.1269058  17.3951378  20.7959918
  86.3020814  16.9239421  21.6105540  85.4401846  18.0217144  21.0241178
  87.0826122  11.6723884  26.8423219  86.7475954  11.6324654  27.7380869
  86.5830067  11.0068600  26.3693629  91.6739445  13.7278827  34.7766059
  91.6151991  13.0438047  34.1096642  92.0758963  14.4697817  34.3246685
  80.6930144  20.5440741  27.5699778  80.9326742  21.1759265  28.2478796
  79.8499340  20.1928781  27.8565137  91.6756852  11.6918411  33.0080039
  90.7883631  11.3544333  33.1306438  92.2455403  10.9601442  33.2448804
  73.3285999   8.0242503  26.3323090  74.0157039   7.7104233  25.7444105
  73.1734128   8.9283867  26.0590342  85.2058006  16.3519863  29.9741282
  85.1328177  17.1574835  30.4860586  84.7635399  16.5511829  29.1489303
  84.9947785  15.5891633  23.4844103  84.2115307  16.1313313  23.5782328
  85.6940530  16.1065613  23.8838345  87.6656689  16.2506697  32.1299441
  88.3784661  16.8854162  32.0575342  87.1746718  16.3470563  31.3139442
  82.7168603  14.0001141  32.9505011  83.4178062  14.6337624  33.1034406
  82.2463718  14.3415872  32.1900651  90.8422998  12.3419091  21.2352918
  91.1182842  12.2275685  22.1446793  89.9727497  11.9436575  21.1965092
  87.4777062  16.5905441  24.8785732  87.6599457  15.7727097  25.3413484
  88.3010048  16.8073134  24.4410622  87.8119228  15.5173627  22.1400781
  88.3406994  15.0066081  21.5270943  88.0747447  15.2016157  23.0046314
  78.3136321  13.5337496  29.8836114  78.8989757  12.7881184  30.0164018
  78.1161159  13.8441453  30.7672778  81.1674976  16.5688743  24.8998556
  80.4985351  17.0534871  24.4162597  81.0287846  16.8157964  25.8141935
  72.9053975   6.1043096  28.6040557  72.9438075   5.5706687  29.3977675
  72.3994268   5.5778302  27.9851534  85.3080244  18.6032487  31.4981215
  85.8598552  18.7664108  32.2630300  85.6486438  19.1936925  30.8261240
  90.1591119  13.4293744  37.3529869  90.7031023  14.0423703  36.8584824
  89.5777964  13.9873323  37.8696882  88.4448632  16.5514462  28.4844897
  88.3199771  15.7504202  27.9755842  89.1027723  17.0460656  27.9958867
  90.5083540  14.3523482  30.1124447  89.5613876  14.2328834  30.0402774
  90.8566313  13.4645980  30.1950709  87.5129973  14.1476199  26.3128799
  87.3654936  13.2192906  26.4936369  88.3383467  14.1696289  25.8285875
  91.1164095  14.9704757  27.3993672  92.0410643  14.7647619  27.2618123
  90.9479399  14.7221158  28.3083014  90.9059411  15.4890425  22.7555764
  91.0796289  14.9236847  22.0029616  91.3988303  16.2891320  22.5735253
  76.7236371   7.5005094  30.8219322  76.1789839   8.2764902  30.9539597
  77.6015721   7.8475898  30.6638444  77.5102393   6.6274990  33.7149479
  76.7684129   6.7757625  34.3014110  77.1895137   6.8883256  32.8516229
  85.4546056  16.1690968  33.5129869  85.7633182  15.9240115  34.3852569
  86.2521538  16.3737607  33.0248739  85.4766668  18.3228878  25.7435246
  85.0371658  17.8305257  26.4368102  86.2274785  17.7801846  25.5027321
  77.9559007  14.5140419  25.7459874  78.7817027  14.2144191  25.3658517
  77.6053059  13.7448041  26.1949662  82.9240540  13.8666887  27.8157547
  82.3020549  13.2037592  27.5159775  83.5945407  13.8928019  27.1331195
  76.1567612  12.4326745  26.7048807  75.3199520  12.0048920  26.5232809
  76.1291257  12.6259189  27.6419599  93.4819913  12.8889798  36.6891191
  92.6915457  12.8713937  36.1495690  93.2453268  13.4278092  37.4440227
  82.4854047  12.4170810  21.2916008  82.6342167  13.1006275  20.6382681
  83.2920490  12.3975900  21.8065464  80.2406680   8.4435988  22.2977077
  79.9952722   7.5398318  22.4957287  80.4102594   8.4453138  21.3556555
  85.9849452  14.9118941  18.7627755  85.4123419  15.5309128  18.3098227
  86.5582246  15.4618303  19.2967677  89.2046712  15.1956091  19.8936338
  90.1377385  15.1301653  20.0969213  89.1169925  16.0312358  19.4350870
  86.2534943  10.2997500  37.5644465  87.1737953  10.4776099  37.7584511
  86.2184526   9.3553545  37.4124164  79.2497016   8.2098534  30.2067246
  79.4683026   9.1415642  30.2255280  79.6622790   7.8506509  30.9922050
  75.3405368   9.1139005  28.4590861  74.6468840   8.6992958  27.9460815
  76.0878359   9.1559541  27.8624280  77.2542111   9.0457259  26.3356876
  77.2312799   9.1444946  25.3838759  77.5642747   9.8922409  26.6574042
  79.9129489  11.1033414  30.4503490  80.8672742  11.0717356  30.3833422
  79.7142012  10.6424037  31.2653716  80.5028871   9.6734530  33.0174288
  81.3221760  10.1678608  33.0409125  80.7765679   8.7566498  32.9891856
  78.2679718  16.6453033  27.4673688  78.1334186  15.8853434  26.9011686
  77.8511780  17.3693933  27.0002477  81.4248843  17.5422350  27.6792131
  81.3081228  18.4867783  27.5770821  80.6041290  17.2395912  28.0677930
  88.2817177  11.0753511  39.2158626  89.1508337  11.2494163  38.8545261
  87.8023929  11.8947928  39.0934355  82.4503358  18.1950612  30.8948059
  83.3530604  18.2274222  31.2114554  82.2240728  17.2651063  30.9094395
  84.2056960  16.9481599  27.5558138  83.2552591  16.9483460  27.4422510
  84.5089446  16.2014333  27.0394173  99.9409653  22.7842137  28.6203900
 100.5788063  22.6648884  27.9167240  99.8230496  23.7322981  28.6791852
  96.7499359  22.7369565  28.5565425  96.4117871  22.6210630  27.6685960
  97.6189128  22.3360730  28.5366431  92.6086175  24.5905042  24.5462316
  92.0451040  24.4994978  23.7778604  92.4938570  23.7704946  25.0264809
  97.2319142  23.8904417  34.5151631  97.2207783  23.4957215  33.6432134
  97.3939782  23.1570489  35.1085402  90.1550607  26.0856233  27.3846536
  90.9471899  25.7447058  26.9692836  90.3947257  26.1951208  28.3048690
  98.1885734  28.2576009  19.8576781  97.5373714  28.8430090  19.4710795
  98.9830097  28.7882204  19.9171818  92.1141361  25.3465146  20.2563915
  92.8872237  24.7994133  20.1176791  92.4666760  26.2109396  20.4678377
  93.9526404  26.6741529  33.4630815  93.6616270  27.5787159  33.3477481
  94.5883388  26.7158056  34.1774884  94.8782610  24.0518377  30.0532174
  95.4746183  23.8274400  29.3389137  94.9357582  23.3103123  30.6557622
  99.4950922  20.5093591  25.6957108 100.2814011  20.0913014  25.3447525
  99.7589626  21.4139683  25.8638757  94.1703928  23.4085918  20.0906740
  94.0540186  22.7330822  20.7587824  94.2806187  22.9218292  19.2738893
  96.5135468  22.8696066  23.7953429  96.1493676  22.3426687  24.5066351
  97.3702584  22.4794535  23.6219915  98.9116289  26.3602944  30.4580608
  98.6117012  27.2627983  30.3496415  98.5667348  26.0935127  31.3101761
  92.3628770  22.8116741  26.4917313  91.4379267  22.6792955  26.6995004
  92.6113183  23.5910960  26.9887255 102.3113432  18.8785484  28.1378046
 101.4030310  18.8100893  27.8436807 102.2601028  19.3557429  28.9659871
  89.7237581  22.4550015  27.3261102  89.8529962  22.7084493  28.2400513
  89.0435032  23.0477723  27.0065757  93.8937068  33.1247265  23.4251576
  93.8161098  34.0755090  23.5040056  93.2898712  32.7793137  24.0826502
  96.3854298  20.2975130  36.0812943  95.6087632  20.8569050  36.0715807
  97.0244861  20.7831913  36.6027813 104.1775079  17.0801923  29.9155919
 103.5349459  17.3734456  29.2695714 103.6730007  16.9654843  30.7209116
  94.6400670  23.1060583  35.6430910  95.3815355  23.6445627  35.3665733
  93.9337656  23.7326872  35.8002462 100.1156010  25.2489724  34.2403071
 100.5239366  24.8072134  33.4957704  99.3933272  24.6742351  34.4937264
  96.4687080  20.1862331  31.6136628  97.3148275  20.6101744  31.7571277
  96.4085718  19.5295955  32.3075191 100.4384825  25.8090914  27.9955360
  99.8093687  25.9736629  27.2931428 100.0510487  26.2232524  28.7666324
 104.3174057  26.7445352  25.3499724 103.6325095  27.1244254  24.7996757
 104.4017906  27.3540679  26.0831672  99.6186526  17.8466699  33.2717802
  99.3747457  18.6008759  32.7352078  99.8946456  18.2252047  34.1065049
 101.5724988  24.3905311  31.9495067 101.7841884  25.0337071  31.2729449
 101.5254737  23.5567628  31.4816998  99.1751217  17.0023132  28.8531640
  98.3135696  17.3004385  29.1448377  99.2013652  17.2193531  27.9212672
  95.9912787  25.5465322  25.2605445  96.4551132  25.8253025  24.4710068
  95.7269585  24.6448767  25.0778536  92.8836868  25.0936804  28.1985209
  93.4538225  25.5224072  27.5602693  93.4744980  24.8119389  28.8969394
  94.9281673  21.6688475  22.0695010  95.6305716  22.1209519  22.5368937
  94.5962301  21.0272294  22.6974904  93.3762034  20.2600231  36.4446220
  92.7460695  20.9416512  36.6781617  93.2698122  20.1483313  35.4999358
  88.6707007  19.9272028  27.3712144  87.8806061  20.1829556  26.8952255
  89.1618254  20.7420365  27.4764185 102.6870816  27.2677267  30.1217425
 103.5088260  26.8657454  29.8400106 102.6833219  27.1645501  31.0733541
  90.6221752  20.2916607  24.3295621  89.8252915  20.4035301  24.8479116
  90.3947344  20.6303259  23.4636511  96.4527420  26.8161310  32.2778135
  96.5171852  27.2781717  33.1136307  95.7438344  26.1858675  32.4060445
  86.9544710  20.1802518  29.8027135  87.2052748  21.0649528  30.0684711
  87.4904258  20.0007119  29.0302227  96.1675437  28.4829417  22.1457116
  96.0321112  29.3280953  22.5741963  96.7085250  28.6848695  21.3823049
  92.6542777  14.5620997  38.8071471  92.2609723  14.0087196  39.4819115
  93.4708917  14.8731576  39.1977988  89.6204835  26.0004856  22.7185041
  90.1329355  26.7948106  22.8690605  90.2727548  25.3031146  22.6518642
  91.4299719  29.1170612  24.8007794  91.6066348  30.0388576  24.6128778
  92.2256553  28.8029031  25.2302174  95.5710738  15.9778876  36.3991727
  96.3120451  16.5786030  36.3196190  95.8028661  15.2356514  35.8409770
  90.7152076  21.1635244  34.6769957  90.6005591  20.2620501  34.9777056
  89.8596594  21.4098940  34.3254774  97.7943914  29.1052984  36.2757458
  97.3507768  28.3189363  35.9578362  98.4561127  29.2932134  35.6101349
  92.5531035  30.6348786  30.8018136  93.1038460  30.5065849  30.0295130
  91.7142511  30.9343675  30.4513029  99.8925152  29.3855784  34.3038859
  99.8743627  30.2064665  33.8119128 100.8145072  29.2609859  34.5289000
  96.3498206  26.8999913  35.1462367  96.8826543  26.1388202  34.9161675
  95.8212287  26.6073565  35.8886522  87.5853752  24.3293510  23.4944611
  88.4228974  24.7390518  23.2778319  87.7632019  23.3892952  23.4644805
  98.5964441  14.3764635  28.6405242  98.0929237  14.3394770  27.8273048
  98.8895048  15.2857377  28.7001899  94.8407327  14.4603364  27.6471424
  95.7060324  14.2646173  27.2877314  94.9084836  14.2313716  28.5740781
  97.7150919  26.0285906  22.6581179  97.1872280  25.2938665  22.3454417
  97.2138421  26.8060582  22.4121148 102.6943765  24.2234926  27.7748226
 102.0367439  24.9134188  27.8628354 103.4984164  24.6131358  28.1182212
  92.4469646  16.6905572  25.0187791  93.0213398  16.4680754  24.2860984
  93.0340629  16.7594267  25.7716392 101.5049223  22.5779299  25.8252167
 102.0181105  23.2109291  26.3273877 102.1550447  21.9780495  25.4595527
  98.7671598  32.5563623  18.5812839  98.0933296  32.8595320  19.1897796
  99.1537420  33.3592704  18.2318296  97.9830054  20.0528755  28.0710508
  97.0652616  20.2743702  27.9132196  98.3990198  20.1275065  27.2122215
  98.7665102  21.4520170  23.2013188  99.5136921  21.9641567  22.8920310
  99.0356692  21.1304223  24.0617582  97.0391752  23.9478711  20.1840143
  96.1302972  23.6637744  20.2812612  97.0686836  24.3677790  19.3243449
 102.2711020  27.5585301  23.9531310 101.8173347  26.7176210  24.0096501
 101.6404986  28.1946699  24.2906090 100.7143959  29.3961797  24.8881128
 101.0066933  29.9566854  24.1693494 101.2242579  29.6890358  25.6434287
  87.6079923  21.6684225  24.1655345  87.4104322  21.0753586  23.4406411
  87.0526587  21.3636435  24.8831284  95.5876646  21.5607332  26.2849938
  95.6425256  20.6081168  26.2092414  94.7767848  21.7166771  26.7691236
  93.5269006  20.1784391  24.0440317  92.7136872  20.4778562  24.4505509
  94.0228000  19.7840080  24.7614799  95.6777584  30.1742148  25.9774581
  95.6353763  30.4002995  25.0483113  96.5940283  29.9405523  26.1260383
  99.1243218  20.6426216  32.8755211  99.4792606  20.8697689  33.7349676
  99.7715349  20.9744593  32.2532466  93.0183081  17.7502747  29.6601552
  93.6582460  17.6091506  28.9624515  92.1860612  17.4637260  29.2840154
 104.8810334  25.8321179  28.5915811 105.3146841  25.7396468  29.4398865
 105.5941915  25.8078679  27.9535827  93.7943385  27.0505177  25.7736544
  94.5883983  26.5555497  25.5719119  93.0835077  26.5223040  25.4104250
  98.6138229  29.4323273  30.1248912  98.6675252  30.0014209  30.8926628
  97.7453011  29.6025158  29.7602949  90.1026148  21.1948259  21.8496297
  89.1723736  21.1332715  22.0666259  90.1983620  20.6724212  21.0532938
  90.0211697  17.7203072  24.4374538  90.2818515  18.6348405  24.3283699
  90.8428870  17.2527514  24.5871151  91.4936623  19.1340829  31.6073363
  92.1659676  18.9258191  30.9586012  90.6666409  18.9362915  31.1678595
 105.7425884  25.8744879  31.1248697 105.9361774  26.7790690  31.3707971
 105.6426502  25.4152298  31.9587282  97.3962195  15.7602770  33.6239024
  96.7490110  16.4592720  33.5303500  98.1663210  16.1938914  33.9915272
 100.8040993  26.0251622  36.6989577 100.6526499  25.7962174  35.7819661
 100.7945672  26.9822224  36.7120922  97.5726329  23.5983535  31.6835844
  98.5018389  23.7494694  31.5104811  97.1517359  23.6867556  30.8284490
  96.3714661  27.6234199  29.4534381  96.2325747  27.2552984  30.3260319
  95.5829257  28.1381839  29.2818339  96.9662813  32.7243296  20.7959918
  97.1414569  32.2531339  21.6105540  96.2795601  33.3509062  21.0241178
  97.9219876  27.0015802  26.8423219  97.5869709  26.9616572  27.7380869
  97.4223822  26.3360518  26.3693629  91.8964120  22.4083432  32.3675800
  91.7583918  21.6763671  32.9687339  92.8069043  22.3192332  32.0859988
  94.5246421  22.1203391  31.8559480  95.2346039  21.4796584  31.8146098
  94.4815729  22.3716286  32.7785661 102.5133199  29.0570745  34.7766059
 102.4545745  28.3729965  34.1096642 102.9152718  29.7989735  34.3246685
  93.2375355  19.1068609  33.6755119  92.7012712  18.6559348  34.3276716
  92.6492063  19.2414518  32.9325584  91.5323898  35.8732659  27.5699778
  91.7720496  36.5051183  28.2478796  90.6893095  35.5220699  27.8565137
 102.5150607  27.0210329  33.0080039 101.6277385  26.6836250  33.1306438
 103.0849158  26.2893360  33.2448804  84.1679754  23.3534420  26.3323090
  84.8550794  23.0396150  25.7444105  84.0127882  24.2575785  26.0590342
  88.9714476  18.2424617  30.7608114  88.8872665  17.6350286  30.0258524
  88.1497182  18.7333635  30.7617610  96.0451760  31.6811781  29.9741282
  95.9721931  32.4866752  30.4860586  95.6029153  31.8803747  29.1489303
  95.8341540  30.9183551  23.4844103  95.0509062  31.4605231  23.5782328
  96.5334285  31.4357531  23.8838345  98.5050444  31.5798615  32.1299441
  99.2178416  32.2146080  32.0575342  98.0140472  31.6762481  31.3139442
 100.2267970  25.4849868  23.7016732  99.2924249  25.6051330  23.5321437
 100.4044639  24.5822334  23.4376742  95.7273158  18.8695563  25.8549993
  95.3570946  18.3166604  26.5430899  96.2232251  18.2653697  25.3024993
  93.5562357  29.3293058  32.9505011  94.2571817  29.9629541  33.1034406
  93.0857472  29.6707790  32.1900651 101.6816753  27.6711008  21.2352918
 101.9576597  27.5567603  22.1446793 100.8121252  27.2728493  21.1965092
 101.3563643  21.8837666  30.7757562 100.7035093  22.1313573  30.1210015
 101.7344023  21.0701804  30.4420039  98.3170817  31.9197359  24.8785732
  98.4993211  31.1019015  25.3413484  99.1403803  32.1365051  24.4410622
  98.6512982  30.8465544  22.1400781  99.1800749  30.3357999  21.5270943
  98.9141202  30.5308074  23.0046314  97.4051216  22.6257477  37.2623599
  96.7291853  22.5251606  37.9325974  98.2278850  22.4696691  37.7259596
  89.1530075  28.8629413  29.8836114  89.7383512  28.1173101  30.0164018
  88.9554914  29.1733370  30.7672778  92.0068730  31.8980661  24.8998556
  91.3379106  32.3826789  24.4162597  91.8681600  32.1449881  25.8141935
  83.7447730  21.4335014  28.6040557  83.7831829  20.8998604  29.3977675
  83.2388023  20.9070219  27.9851534  96.1473999  33.9324404  31.4981215
  96.6992307  34.0956026  32.2630300  96.4880192  34.5228842  30.8261240
  91.1238492  16.2799554  32.1003100  91.1879819  17.1414385  31.6880497
  91.0605612  15.6673556  31.3675458  90.5990765  18.3522687  35.7476134
  91.2262803  17.9699764  36.3613658  89.7418684  18.1336889  36.1131826
 100.9984873  28.7585662  37.3529869 101.5424777  29.3715620  36.8584824
 100.4171718  29.3165240  37.8696882  87.3756307  20.1599116  21.6794489
  87.6709749  19.2509794  21.6261542  86.4744343  20.1386855  21.3575491
  99.2842386  31.8806380  28.4844897  99.1593526  31.0796120  27.9755842
  99.9421477  32.3752573  27.9958867  90.9050554  18.2355112  27.6622037
  90.1837140  18.8491080  27.5229511  91.6943810  18.7712877  27.5838683
 101.3477295  29.6815400  30.1124447 100.4007630  29.5620751  30.0402774
 101.6960068  28.7937898  30.1950709  93.7076868  15.5709539  33.9362689
  94.2311270  15.8171835  34.6988998  93.4889201  16.4029574  33.5165826
  89.1044149  17.8413214  21.8033814  88.7756855  16.9610592  21.6208920
  89.4583520  17.7860882  22.6910203  98.3523728  29.4768116  26.3128799
  98.2048690  28.5484824  26.4936369  99.1777221  29.4988207  25.8285875
  92.2185972  18.1286183  22.1709291  92.5582045  18.6572105  21.4487900
  92.6658093  18.4666589  22.9467858 101.9557850  30.2996675  27.3993672
 102.8804397  30.0939536  27.2618123 101.7873153  30.0513076  28.3083014
  94.9129413  16.5123234  31.6212360  94.5726233  15.7131047  32.0233039
  94.2068419  16.8124945  31.0489193  95.5645885  13.5972546  30.0739683
  96.3871954  13.1233025  29.9518573  95.8083948  14.3763030  30.5738369
  93.0884464  20.2891667  27.8831661  92.9429044  20.6031970  28.7755943
  92.6109667  20.9076567  27.3302560  94.9480846  17.2794215  27.9312551
  94.9342415  16.3835308  27.5944849  95.6653275  17.2864879  28.5650837
  96.8006977  17.7131555  29.9765678  96.5424755  18.6348626  29.9750009
  96.2692018  17.3161990  30.6666142 101.7453166  30.8182342  22.7555764
 101.9190043  30.2528765  22.0029616 102.2382057  31.6183237  22.5735253
  87.5630126  22.8297011  30.8219322  87.0183594  23.6056819  30.9539597
  88.4409476  23.1767816  30.6638444  94.3517742  16.1608595  23.2000121
  94.4733654  15.2325242  23.3991008  94.0619785  16.1747281  22.2878436
  88.3496148  21.9566908  33.7149479  87.6077884  22.1049543  34.3014110
  88.0288892  22.2175173  32.8516229  96.2939810  31.4982886  33.5129869
  96.6026937  31.2532033  34.3852569  97.0915292  31.7029524  33.0248739
  96.3160422  33.6520796  25.7435246  95.8765413  33.1597174  26.4368102
  97.0668539  33.1093763  25.5027321  88.7952761  29.8432336  25.7459874
  89.6210781  29.5436108  25.3658517  88.4446813  29.0739959  26.1949662
  93.7634294  29.1958805  27.8157547  93.1414304  28.5329510  27.5159775
  94.4339161  29.2219937  27.1331195  86.9961366  27.7618663  26.7048807
  86.1593275  27.3340837  26.5232809  86.9685012  27.9551106  27.6419599
  93.8358822  17.6740593  37.4090053  93.8846977  18.5502716  37.0267823
  94.3781336  17.1317986  36.8361697 104.3213668  28.2181716  36.6891191
 103.5309211  28.2005855  36.1495690 104.0847022  28.7570010  37.4440227
 104.4411543  25.0674182  34.0023919 104.4909548  24.9024190  34.9439442
 104.3325466  24.2001441  33.6121800  93.3247801  27.7462728  21.2916008
  93.4735922  28.4298192  20.6382681  94.1314245  27.7267818  21.8065464
 101.7315305  21.0505110  35.3183226 102.6325168  20.9111575  35.0267224
 101.8063280  21.2159565  36.2581403  96.0658110  18.4271965  34.1636412
  95.1961420  18.7205531  33.8919001  96.3017591  19.0112410  34.8843676
 105.9429739  27.4871124  34.2465941 105.6514548  27.8501104  35.0829402
 105.3301871  26.7738132  34.0679273 104.1916928  22.6103739  32.7145999
 104.6671049  22.8031385  31.9064850 103.2682493  22.6662924  32.4689382
  91.0800434  23.7727906  22.2977077  90.8346476  22.8690236  22.4957287
  91.2496349  23.7745056  21.3556555  98.7697144  14.6451582  31.6801832
  99.2879088  15.3812609  31.3548321  98.4152277  14.9515575  32.5148592
  90.3496082  19.5056263  19.7963238  89.6565327  19.5800618  19.1403274
  90.1047834  18.7416607  20.3184755  96.8243207  30.2410858  18.7627755
  96.2517174  30.8601046  18.3098227  97.3976001  30.7910220  19.2967677
 102.8918597  19.4869499  30.9474304 103.8436020  19.5867596  30.9686528
 102.7222047  18.6947767  31.4572389 100.9132976  16.5725082  31.1333705
 100.3182908  16.8530095  30.4380194 100.6282673  17.0618983  31.9050446
 100.0440467  30.5248009  19.8936338 100.9771140  30.4593570  20.0969213
  99.9563679  31.3604275  19.4350870 105.3706675  22.7075618  30.0616604
 105.3382995  21.7691619  30.2476288 105.9807298  22.7859655  29.3282429
 105.5201163  19.4986662  30.1074887 105.0040212  18.7145118  29.9204816
 106.4041112  19.1705378  30.2721406  97.0928698  25.6289417  37.5644465
  98.0131707  25.8068016  37.7584511  97.0578281  24.6845463  37.4124164
  86.3110863  20.8228011  26.4897739  85.9913647  19.9693319  26.1972114
  85.7644291  21.0376589  27.2455707  90.0890770  23.5390452  30.2067246
  90.3076780  24.4707560  30.2255280  90.5016544  23.1798426  30.9922050
  94.9618636  19.1123658  39.5969995  94.8615363  20.0618015  39.5282086
  94.7440178  18.7841897  38.7246065  86.1799123  24.4430923  28.4590861
  85.4862594  24.0284875  27.9460815  86.9272114  24.4851459  27.8624280
  94.8249906  22.5420797  38.4135057  94.3416988  23.3421157  38.6198946
  94.9110845  22.5528742  37.4602501  88.0935865  24.3749176  26.3356876
  88.0706554  24.4736864  25.3838759  88.4036502  25.2214327  26.6574042
  90.7523243  26.4325331  30.4503490  91.7066497  26.4009274  30.3833422
  90.5535767  25.9715955  31.2653716  91.3422625  25.0026447  33.0174288
  92.1615514  25.4970526  33.0409125  91.6159433  24.0858416  32.9891856
  89.1073472  31.9744951  27.4673688  88.9727940  31.2145352  26.9011686
  88.6905534  32.6985851  27.0002477  92.2642598  32.8714268  27.6792131
  92.1474982  33.8159700  27.5770821  91.4435044  32.5687829  28.0677930
  86.5957540  19.3364581  33.7166485  87.2416403  18.8263535  34.2053710
  86.3874691  20.0733263  34.2909910  99.1210932  26.4045429  39.2158626
  99.9902092  26.5786081  38.8545261  98.6417683  27.2239846  39.0934355
  93.2897112  33.5242530  30.8948059  94.1924359  33.5566140  31.2114554
  93.0634482  32.5942981  30.9094395  95.0450714  32.2773516  27.5558138
  94.0946345  32.2775378  27.4422510  95.3483200  31.5306251  27.0394173
  90.9355031  16.4832198  37.8141499  91.7986492  16.1269003  38.0244824
  90.3620441  16.1446093  38.5016904 103.4479930  39.9196959  24.5462316
 102.8844795  39.8286896  23.7778604 103.3332325  39.0996864  25.0264809
 102.9535115  40.6757064  20.2563915 103.7265991  40.1286051  20.1176791
 103.3060514  41.5401313  20.4678377 104.7920158  42.0033446  33.4630815
 104.5010024  42.9079077  33.3477481 105.4277142  42.0449974  34.1774884
 105.7176365  39.3810295  30.0532174 106.3139937  39.1566317  29.3389137
 105.7751336  38.6395040  30.6557622 105.0097682  38.7377836  20.0906740
 104.8933940  38.0622740  20.7587824 105.1199942  38.2510210  19.2738893
 103.2022525  38.1408659  26.4917313 102.2773021  38.0084873  26.6995004
 103.4506938  38.9202878  26.9887255 100.5631336  37.7841932  27.3261102
 100.6923717  38.0376411  28.2400513  99.8828787  38.3769640  27.0065757
 104.7330823  48.4539182  23.4251576 104.6554853  49.4047007  23.5040056
 104.1292467  48.1085055  24.0826502 105.4794425  38.4352501  35.6430910
 106.2209109  38.9737545  35.3665733 104.7731410  39.0618790  35.8002462
 103.7230622  40.4228722  28.1985209 104.2931979  40.8515990  27.5602693
 104.3138734  40.1411306  28.8969394 105.7675427  36.9980393  22.0695010
 106.4699471  37.4501436  22.5368937 105.4356056  36.3564211  22.6974904
 104.2155789  35.5892149  36.4446220 103.5854449  36.2708430  36.6781617
 104.1091877  35.4775231  35.4999358  99.5100761  35.2563945  27.3712144
  98.7199815  35.5121474  26.8952255 100.0012009  36.0712283  27.4764185
 101.4615507  35.6208524  24.3295621 100.6646670  35.7327219  24.8479116
 101.2341099  35.9595177  23.4636511  97.7938464  35.5094436  29.8027135
  98.0446503  36.3941446  30.0684711  98.3298013  35.3299037  29.0302227
 103.4936531  29.8912915  38.8071471 103.1003477  29.3379114  39.4819115
 104.3102672  30.2023493  39.1977988 100.4598589  41.3296773  22.7185041
 100.9723110  42.1240023  22.8690605 101.1121302  40.6323064  22.6518642
 102.2693474  44.4462529  24.8007794 102.4460102  45.3680494  24.6128778
 103.0650307  44.1320949  25.2302174 101.5545830  36.4927161  34.6769957
 101.4399346  35.5912419  34.9777056 100.6990348  36.7390858  34.3254774
 103.3924789  45.9640703  30.8018136 103.9432215  45.8357767  30.0295130
 102.5536265  46.2635592  30.4513029  98.4247506  39.6585427  23.4944611
  99.2622728  40.0682436  23.2778319  98.6025774  38.7184870  23.4644805
 105.6801082  29.7895282  27.6471424 106.5454078  29.5938091  27.2877314
 105.7478591  29.5605634  28.5740781 103.2863401  32.0197490  25.0187791
 103.8607153  31.7972671  24.2860984 103.8734383  32.0886184  25.7716392
  98.4473677  36.9976143  24.1655345  98.2498077  36.4045504  23.4406411
  97.8920341  36.6928353  24.8831284 106.4270401  36.8899249  26.2849938
 106.4819011  35.9373086  26.2092414 105.6161603  37.0458688  26.7691236
 104.3662761  35.5076309  24.0440317 103.5530626  35.8070480  24.4505509
 104.8621755  35.1131998  24.7614799 103.8576835  33.0794665  29.6601552
 104.4976215  32.9383424  28.9624515 103.0254366  32.7929178  29.2840154
 104.6337139  42.3797095  25.7736544 105.4277738  41.8847415  25.5719119
 103.9228832  41.8514958  25.4104250 100.9419903  36.5240177  21.8496297
 100.0117491  36.4624632  22.0666259 101.0377375  36.0016129  21.0532938
 100.8605452  33.0494990  24.4374538 101.1212269  33.9640323  24.3283699
 101.6822624  32.5819432  24.5871151 102.3330377  34.4632747  31.6073363
 103.0053431  34.2550109  30.9586012 101.5060164  34.2654833  31.1678595
 102.7357874  37.7375350  32.3675800 102.5977672  37.0055589  32.9687339
 103.6462798  37.6484250  32.0859988 105.3640175  37.4495309  31.8559480
 106.0739794  36.8088501  31.8146098 105.3209483  37.7008204  32.7785661
 104.0769109  34.4360527  33.6755119 103.5406466  33.9851265  34.3276716
 103.4885818  34.5706436  32.9325584 102.3717653  51.2024576  27.5699778
 102.6114251  51.8343100  28.2478796 101.5286849  50.8512616  27.8565137
  95.0073508  38.6826338  26.3323090  95.6944548  38.3688068  25.7444105
  94.8521637  39.5867703  26.0590342  99.8108230  33.5716535  30.7608114
  99.7266419  32.9642204  30.0258524  98.9890937  34.0625553  30.7617610
 104.3956112  44.6584976  32.9505011 105.0965571  45.2921459  33.1034406
 103.9251227  44.9999708  32.1900651  99.9923830  44.1921331  29.8836114
 100.5777266  43.4465019  30.0164018  99.7948668  44.5025288  30.7672778
 102.8462485  47.2272579  24.8998556 102.1772860  47.7118706  24.4162597
 102.7075355  47.4741799  25.8141935  94.5841484  36.7626931  28.6040557
  94.6225584  36.2290522  29.3977675  94.0781777  36.2362137  27.9851534
 101.9632247  31.6091472  32.1003100 102.0273573  32.4706303  31.6880497
 101.8999367  30.9965474  31.3675458 101.4384519  33.6814604  35.7476134
 102.0656558  33.2991682  36.3613658 100.5812438  33.4628806  36.1131826
  98.2150062  35.4891034  21.6794489  98.5103503  34.5801712  21.6261542
  97.3138098  35.4678773  21.3575491 101.7444309  33.5647030  27.6622037
 101.0230895  34.1782998  27.5229511 102.5337565  34.1004795  27.5838683
 104.5470622  30.9001457  33.9362689 105.0705024  31.1463753  34.6988998
 104.3282956  31.7321491  33.5165826  99.9437904  33.1705131  21.8033814
  99.6150610  32.2902510  21.6208920 100.2977274  33.1152800  22.6910203
 103.0579727  33.4578101  22.1709291 103.3975799  33.9864022  21.4487900
 103.5051847  33.7958507  22.9467858 105.7523167  31.8415152  31.6212360
 105.4119988  31.0422965  32.0233039 105.0462174  32.1416863  31.0489193
 103.9278218  35.6183585  27.8831661 103.7822799  35.9323888  28.7755943
 103.4503422  36.2368485  27.3302560 105.7874601  32.6086133  27.9312551
 105.7736170  31.7127226  27.5944849 106.5047029  32.6156797  28.5650837
  98.4023880  38.1588929  30.8219322  97.8577348  38.9348737  30.9539597
  99.2803230  38.5059734  30.6638444 105.1911497  31.4900513  23.2000121
 105.3127408  30.5617159  23.3991008 104.9013539  31.5039199  22.2878436
  99.1889902  37.2858825  33.7149479  98.4471638  37.4341461  34.3014110
  98.8682646  37.5467091  32.8516229  99.6346516  45.1724254  25.7459874
 100.4604536  44.8728026  25.3658517  99.2840568  44.4031877  26.1949662
 104.6028049  44.5250722  27.8157547 103.9808058  43.8621427  27.5159775
 105.2732916  44.5511854  27.1331195  97.8355121  43.0910581  26.7048807
  96.9987029  42.6632755  26.5232809  97.8078766  43.2843024  27.6419599
 104.6752576  33.0032510  37.4090053 104.7240732  33.8794633  37.0267823
 105.2175091  32.4609903  36.8361697 104.1641556  43.0754646  21.2916008
 104.3129676  43.7590110  20.6382681 104.9707999  43.0559736  21.8065464
 101.9194189  39.1019823  22.2977077 101.6740231  38.1982153  22.4957287
 102.0890103  39.1036974  21.3556555 101.1889836  34.8348181  19.7963238
 100.4959081  34.9092536  19.1403274 100.9441588  34.0708525  20.3184755
  97.1504617  36.1519929  26.4897739  96.8307402  35.2985237  26.1972114
  96.6038046  36.3668507  27.2455707 100.9284525  38.8682370  30.2067246
 101.1470535  39.7999478  30.2255280 101.3410299  38.5090344  30.9922050
 105.8012390  34.4415575  39.5969995 105.7009117  35.3909932  39.5282086
 105.5833932  34.1133814  38.7246065  97.0192877  39.7722840  28.4590861
  96.3256349  39.3576793  27.9460815  97.7665868  39.8143377  27.8624280
 105.6643660  37.8712714  38.4135057 105.1810742  38.6713074  38.6198946
 105.7504599  37.8820659  37.4602501  98.9329620  39.7041094  26.3356876
  98.9100308  39.8028781  25.3838759  99.2430256  40.5506245  26.6574042
 101.5916998  41.7617249  30.4503490 102.5460251  41.7301191  30.3833422
 101.3929521  41.3007873  31.2653716 102.1816380  40.3318365  33.0174288
 103.0009269  40.8262444  33.0409125 102.4553188  39.4150333  32.9891856
  99.9467227  47.3036869  27.4673688  99.8121695  46.5437269  26.9011686
  99.5299289  48.0277768  27.0002477 103.1036352  48.2006186  27.6792131
 102.9868737  49.1451618  27.5770821 102.2828799  47.8979747  28.0677930
  97.4351294  34.6656499  33.7166485  98.0810158  34.1555453  34.2053710
  97.2268445  35.4025181  34.2909910 104.1290867  48.8534447  30.8948059
 105.0318113  48.8858058  31.2114554 103.9028237  47.9234898  30.9094395
 105.8844469  47.6065434  27.5558138 104.9340100  47.6067296  27.4422510
 106.1876955  46.8598169  27.0394173 101.7748785  31.8124116  37.8141499
 102.6380247  31.4560921  38.0244824 101.2014196  31.4738011  38.5016904
 105.8467263  54.0118256  26.3323090 106.5338303  53.6979986  25.7444105
 105.6915391  54.9159620  26.0590342 105.4235239  52.0918849  28.6040557
 105.4619338  51.5582440  29.3977675 104.9175532  51.5654055  27.9851534
   2.1117202  48.9404322  86.7719229   1.4763035  49.0138949  87.4840134
   1.7814609  49.5297921  86.0938308   7.3415552  43.4406705  92.9763551
   8.0740724  42.8705922  93.2101380   6.5854908  43.0528305  93.4170056
   4.2771446  43.8202977  86.9815242   5.1889302  44.0530364  86.8062940
   3.7681093  44.4040021  86.4190321   2.8841028  48.8028795  94.3728824
   2.2549891  48.9674509  93.6704892   2.4966690  49.2170405  95.1439788
   6.7630260  49.7383233  91.7273188   6.0781298  50.1182135  91.1770221
   6.8474109  50.3478560  92.4605135  13.2233013  46.6053896  92.8475860
  12.4696721  46.0361294  92.6919864  13.3580554  46.5716561  93.7946495
   1.9274387  44.9906471  85.5601908   1.4121010  45.7611076  85.7990295
   1.6551695  44.3171608  86.1834969   6.9008661  47.7438826  87.4955081
   6.1238104  47.4049986  87.0510244   7.5800142  47.7491449  86.8210046
   1.7160690  42.8633564  87.3861689   1.4110826  43.1779713  88.2371832
   2.6691132  42.9414983  87.4289022   5.1399968  47.2172807  94.1521689
   4.4823642  47.9072069  94.2401818   5.9440367  47.6069239  94.4955676
   3.9505427  45.5717180  92.2025631   4.4637309  46.2047172  92.7047341
   4.6006651  44.9718376  91.8368991   1.2127801  55.5501504  84.9586302
   0.5389500  55.8533201  85.5671260   1.5993623  56.3530585  84.6091759
   1.2121305  44.4458051  89.5786652   1.9593124  44.9579448  89.2693774
   1.4812895  44.1242104  90.4391046   4.7167223  50.5523181  90.3304774
   4.2629550  49.7114091  90.3869964   4.0861190  51.1884580  90.6679554
   3.1600162  52.3899678  91.2654592   3.4523137  52.9504735  90.5466958
   3.6698783  52.6828239  92.0207751   7.2997158  46.7582533  89.9578003
   7.1615057  46.9484129  89.0299193   6.9433377  47.5201915  90.4146055
   7.3266538  48.8259060  94.9689275   7.7603044  48.7334349  95.8172329
   8.0398118  48.8016560  94.3309291   3.3035271  47.3409717  83.4933742
   2.6864442  46.6156545  83.3966795   2.8351759  48.1019078  83.1500817
   9.4424150  45.4256427  94.1470064   9.4314027  46.3081142  93.7763997
   8.5741530  45.0727978  93.9524601   2.6724174  48.4787749  90.0790196
   1.7380452  48.5989211  89.9094900   2.8500842  47.5760215  89.8150206
   6.0596725  44.3205068  90.6140230   6.5257177  45.1533059  90.5400533
   6.5104226  43.8550049  91.3185489   4.1272956  50.6648889  87.6126382
   4.4032800  50.5505484  88.5220256   3.2577455  50.2666374  87.5738555
   0.7627020  54.9135240  91.2559196   0.9449415  54.0956896  91.7186948
   1.5860006  55.1302932  90.8184086   1.0969186  53.8403425  88.5174244
   1.6256952  53.3295880  87.9044406   1.3597405  53.5245955  89.3819777
   1.7298589  54.8744261  94.8618361   1.6049729  54.0734001  94.3529306
   2.3877681  55.3690454  94.3732331   3.7933498  52.6753281  96.4897911
   2.8463833  52.5558632  96.4176238   4.1416271  51.7875779  96.5724172
   0.7979931  52.4705997  92.6902263   0.6504894  51.5422705  92.8709833
   1.6233425  52.4926088  92.2059338   4.4014053  53.2934556  93.7767136
   5.3260600  53.0877417  93.6391587   4.2329356  53.0450957  94.6856477
   4.1909369  53.8120223  89.1329227   4.3646247  53.2466646  88.3803080
   4.6838260  54.6121118  88.9508717  10.0448760  46.5756646  90.7519527
  10.4879906  45.8263972  90.3538650   9.1675271  46.5666783  90.3693259
   5.1784542  53.1286988  86.2326126   5.8735446  53.7493680  86.4513440
   5.5207692  52.2782339  86.5078503   7.0775965  50.5786693  87.7613456
   7.6027289  50.9173966  87.0362776   6.9898317  49.6433709  87.5776591
   9.5881625  48.0461885  93.1441975  10.4228516  48.4851689  93.3079535
   9.7240754  47.5700538  92.3250220   2.4896670  53.5185890  86.2709801
   3.4227343  53.4531451  86.4742677   2.4019883  54.3542156  85.8124334
   5.1184687  52.8351760  83.2313749   5.0398318  52.5011624  84.1249507
   5.9394353  53.3273528  83.2305221  13.6339428  46.7629506  95.5796104
  14.3642816  46.5014794  96.1403808  13.0246373  46.0258228  95.6198172
   4.7620547  38.2274990  89.7019359   4.1819216  38.8859794  89.3197411
   4.4956480  37.4052335  89.2906777   3.5445425  40.3875081  88.7575707
   2.6571280  40.6724731  88.5395902   3.9599414  40.2268844  87.9102984
   2.6888638  50.1519755  82.8523727   3.3924489  50.3569758  83.4681383
   1.9651287  50.7196517  83.1172811   3.5186449  45.9029617  88.9725997
   3.4621650  46.3598168  88.1333630   4.0714791  45.1420301  88.7948840
   7.3291255  41.6919348  89.7976117   7.0728189  41.2915984  90.6284325
   6.7044123  42.4063142  89.6726256  11.6403592  44.4315422  92.3047408
  11.0803150  44.5008611  93.0778970  11.0347096  44.2556406  91.5846905
   4.5975336  50.5902285  84.9022187   5.4320940  50.1583483  84.7199662
   4.4359679  50.4184298  85.8299082   4.2521228  47.0934398  86.2678527
   4.1970032  46.9278669  85.3266971   3.6267283  47.8010431  86.4240716
  13.2259611  61.1071936  94.9977364  13.8638021  60.9878683  94.2940704
  13.1080454  62.0552780  95.0565316  10.0349317  61.0599364  94.9338889
   9.6967829  60.9440428  94.0459424  10.9039085  60.6590529  94.9139895
   5.8936133  62.9134840  90.9235780   5.3300998  62.8224777  90.1552067
   5.7788528  62.0934745  91.4038272  11.4735692  66.5805808  86.2350245
  10.8223671  67.1659888  85.8484258  12.2680054  67.1112003  86.2945282
   5.3991319  63.6694945  86.6337379   6.1722195  63.1223932  86.4950255
   5.7516718  64.5339194  86.8451840   8.1632568  62.3748176  96.4305638
   8.7596140  62.1504198  95.7162601   8.2207540  61.6332921  97.0331086
   7.7357597  59.8287611  84.2655829   7.9883117  59.3069132  83.5039292
   6.7982156  59.6653757  84.3682512  12.7800879  58.8323389  92.0730572
  13.5663969  58.4142813  91.7220989  13.0439584  59.7369482  92.2412221
  12.9510957  64.2696240  86.7719229  12.3156790  64.3430866  87.4840134
  12.6208363  64.8589839  86.0938308  18.1809307  58.7698623  92.9763551
  18.9134478  58.1997840  93.2101380  17.4248662  58.3820223  93.4170056
   7.4553885  61.7315717  86.4680204   7.3390143  61.0560620  87.1361288
   7.5656145  61.2448091  85.6512357   9.7985426  61.1925864  90.1726893
   9.4343633  60.6656485  90.8839815  10.6552542  60.8024333  89.9993378
  15.7034727  52.4820197  97.4358159  15.3718052  53.3515608  97.2119374
  15.1080340  52.1656481  98.1152190   9.4390913  56.2215764  85.1688242
   9.6065316  57.0896000  85.5358713   9.2488082  56.3843046  84.2449531
  12.1966246  64.6832743  96.8354072  11.8966970  65.5857782  96.7269879
  11.8517306  64.4164926  97.6875225   5.6478728  61.1346540  92.8690776
   4.7229224  61.0022754  93.0768468   5.8963141  61.9140759  93.3660719
  15.5963390  57.2015283  94.5151509  14.6880268  57.1330691  94.2210270
  15.5450986  57.6787228  95.3433335   9.4180134  58.6773421  86.1534908
   9.2979759  59.1230472  86.9920389   8.7232722  59.0258739  85.5948447
   3.0087539  60.7779813  93.7034565   3.1379920  61.0314292  94.6173977
   2.3284990  61.3707521  93.3839221   7.1787026  71.4477063  89.8025040
   7.1011056  72.3984888  89.8813520   6.5748670  71.1022936  90.4599966
  17.4625037  55.4031721  96.2929383  16.8199417  55.6964255  95.6469178
  16.9579965  55.2884642  97.0982580  15.1165200  59.1494895  86.9815242
  16.0283056  59.3822281  86.8062940  14.6074847  59.7331939  86.4190321
  13.4005968  63.5719522 100.6176535  13.8089324  63.1301933  99.8731167
  12.6783229  62.9972150 100.8710728   9.7537038  58.5092129  97.9910092
  10.5998233  58.9331543  98.1344741   9.6935676  57.8525753  98.6848655
  13.7234783  64.1320713  94.3728824  13.0943645  64.2966427  93.6704892
  13.3360445  64.5462323  95.1439788  17.6024014  65.0675151  91.7273188
  16.9175053  65.4474052  91.1770221  17.6867864  65.6770478  92.4605135
  12.9036483  56.1696498  99.6491266  12.6597415  56.9238558  99.1125541
  13.1796414  56.5481845 100.4838513  14.8574946  62.7135110  98.3268531
  15.0691841  63.3566870  97.6502912  14.8104694  61.8797426  97.8590461
  12.4601175  55.3252931  95.2305103  11.5985654  55.6234184  95.5221841
  12.4863610  55.5423329  94.2986136   9.2762744  63.8695121  91.6378909
   9.7401090  64.1482824  90.8483532   9.0119543  62.9678566  91.4552000
   6.1686826  63.4166603  94.5758672   6.7388183  63.8453871  93.9376157
   6.7594937  63.1349187  95.2742858   8.2131631  59.9918273  88.4468474
   8.9155674  60.4439317  88.9142401   7.8812259  59.3502092  89.0748367
   1.9556964  58.2501826  93.7485608   1.1656018  58.5059355  93.2725718
   2.4468212  59.0650164  93.8537648  15.9720774  65.5907065  96.4990889
  16.7938218  65.1887253  96.2173570  15.9683177  65.4875299  97.4507004
   3.9071710  58.6146405  90.7069084   3.1102873  58.7265100  91.2252580
   3.6797302  58.9533058  89.8409975  24.0626767  61.9345814  92.8475860
  23.3090475  61.3653212  92.6919864  24.1974308  61.9008478  93.7946495
   9.4525395  66.8059216  88.5230579   9.3171070  67.6510752  88.9515427
   9.9935208  67.0078494  87.7596513   2.9054793  64.3234654  89.0958504
   3.4179313  65.1177904  89.2464069   3.5577505  63.6260945  89.0292106
   4.7149677  67.4400410  91.1781258   4.8916306  68.3618375  90.9902242
   5.5106511  67.1258830  91.6075637  12.8017859  50.3289778  97.0529473
  12.4582128  51.2191420  96.9768583  13.1696821  50.1391436  96.1899058
   0.8703709  62.6523308  89.8718075   1.7078931  63.0620317  89.6551783
   1.0481977  61.7122751  89.8418269  12.7668141  60.3198389  85.5601908
  12.2514765  61.0902994  85.7990295  12.4945450  59.6463525  86.1834969
  10.3515252  55.1648090  90.6187146   9.4956849  54.7754940  90.4392785
  10.7642204  55.2440051  89.7586932  11.8814399  52.6994433  95.0178706
  11.3779195  52.6624568  94.2046511  12.1745006  53.6087176  95.0775363
   8.1257285  52.7833163  94.0244888   8.9910282  52.5875972  93.6650777
   8.1934794  52.5543515  94.9514245  17.7402416  63.0730744  87.4955081
  16.9631858  62.7341903  87.0510244  18.4193897  63.0783367  86.8210046
  12.5554445  58.1925481  87.3861689  12.2504580  58.5071630  88.2371832
  13.5084887  58.2706901  87.4289022  11.0000876  64.3515705  89.0354643
  10.4722238  63.6168464  88.7227881  10.4988379  65.1290381  88.7894611
  15.9793722  62.5464725  94.1521689  15.3217397  63.2363986  94.2401818
  16.7834122  62.9361157  94.4955676   5.7319604  55.0135371  91.3961255
   6.3063356  54.7910552  90.6634448   6.3190586  55.0824065  92.1489856
  14.7899181  60.9009098  92.2025631  15.3031063  61.5339090  92.7047341
  15.4400405  60.3010293  91.8368991   6.0589191  57.0439832  85.4157140
   5.2226503  57.3814518  85.7366415   5.9193961  56.9088812  84.4784277
   8.0342272  51.8876620  90.1236324   7.3806684  51.5725637  89.4992939
   7.9922746  51.2652360  90.8496147   9.1453477  62.1695915  82.0389616
   8.2380538  61.9385168  82.2380765   9.6424509  61.3733534  82.2263598
  12.0521555  70.8793422  84.9586302  11.3783254  71.1825119  85.5671260
  12.4387377  71.6822502  84.6091759  11.2680012  58.3758553  94.4483972
  10.3502573  58.5973500  94.2905660  11.6840156  58.4504864  93.5895679
  12.0515060  59.7749969  89.5786652  12.7986879  60.2871366  89.2693774
  12.3206649  59.4534022  90.4391046  10.3241710  62.2708510  86.5613606
   9.4152929  61.9867542  86.6586076  10.3536794  62.6907588  85.7016913
  15.5560977  65.8815099  90.3304774  15.1023305  65.0406009  90.3869964
  14.9254944  66.5176498  90.6679554  14.4993897  56.8107085  91.5605441
  13.7616654  56.2984471  91.8915684  14.7520671  56.3707467  90.7488718
  13.9993917  67.7191596  91.2654592  14.2916891  68.2796653  90.5466958
  14.5092537  68.0120157  92.0207751  14.6005524  49.5883337  92.1547211
  14.9064401  48.7280701  91.8673126  15.3258129  50.1800957  91.9546204
   8.8726604  59.8837130  92.6623402   8.9275214  58.9310967  92.5865878
   8.0617806  60.0396569  93.1464700  10.0217798  63.8117253  83.9001685
   9.5837228  63.0953112  83.4407322  10.7628239  64.0393368  83.3386776
   6.8118964  58.5014190  90.4213780   5.9986830  58.8008361  90.8278973
   7.3077958  58.1069879  91.1388263   8.9627542  68.4971947  92.3548045
   8.9203721  68.7232793  91.4256577   9.8790241  68.2635322  92.5033846
  12.4093176  58.9656014  99.2528674  12.7642563  59.1927488 100.1123140
  13.0565307  59.2974391  98.6305930  18.1390913  62.0874450  89.9578003
  18.0008811  62.2776046  89.0299193  17.7827131  62.8493833  90.4146055
   6.3033039  56.0732546  96.0375015   6.9432418  55.9321305  95.3397979
   5.4710569  55.7867059  95.6613617  18.1660292  64.1550977  94.9689275
  18.5996799  64.0626266  95.8172329  18.8791873  64.1308478  94.3309291
   7.0793343  65.3734976  92.1510008   7.8733941  64.8785296  91.9492583
   6.3685035  64.8452839  91.7877713  11.8988187  67.7553071  96.5022376
  11.9525209  68.3244008  97.2700091  11.0302969  67.9254957  96.1376413
   3.3876106  59.5178058  88.2269761   2.4573694  59.4562513  88.4439723
   3.4833578  58.9954010  87.4306402   3.3061655  56.0432871  90.8148002
   3.5668472  56.9578204  90.7057163   4.1278828  55.5757313  90.9644615
   4.7786581  57.4570628  97.9846827   5.4509634  57.2487990  97.3359476
   3.9516367  57.2592714  97.5452059  19.0275842  64.1974678  97.5022160
  19.2211732  65.1020489  97.7481435  18.9276460  63.7382097  98.3360745
  10.6812153  54.0832569 100.0012488  10.0340068  54.7822518  99.9076964
  11.4513168  54.5168713 100.3688736  10.8576287  61.9213333  98.0609307
  11.7868347  62.0724493  97.8878275  10.4367317  62.0097354  97.2057954
   9.6564619  65.9463998  95.8307845   9.5175704  65.5782782  96.7033783
   8.8679215  66.4611637  95.6591803  10.2512771  71.0473094  87.1733382
  10.4264526  70.5761138  87.9879004   9.5645559  71.6738861  87.4014642
  11.2069834  65.3245601  93.2196683  10.8719666  65.2846371  94.1154333
  10.7073780  64.6590317  92.7467093  14.1429025  62.6701635  83.4933742
  13.5258196  61.9448463  83.3966795  13.6745514  63.4310995  83.1500817
  15.7983157  67.3800543 101.1539523  15.7395703  66.6959763 100.4870106
  16.2002676  68.1219533 100.7020149   5.9327571  56.8887059  82.6155047
   5.0557038  56.7675860  82.2517293   6.4085324  56.0973138  82.3633935
  15.8000564  65.3440127  99.3853502  14.9127343  65.0066049  99.5079901
  16.3699115  64.6123158  99.6222268   9.1191497  69.2413350  89.8617567
   8.3359019  69.7835030  89.9555792   9.8184243  69.7587329  90.2611808
  12.4288148  55.0507979  92.5051773  12.9256847  54.2977941  92.1852843
  11.6575129  55.0872296  91.9394982  20.2817905  60.7548345  94.1470064
  20.2707781  61.6373060  93.7763997  19.4135284  60.4019895  93.9524601
  13.5117928  63.8079666  90.0790196  12.5774207  63.9281129  89.9094900
  13.6894597  62.9052133  89.8150206   9.0123116  57.1925362  92.2323457
   8.6420904  56.6396402  92.9204363   9.5082209  56.5883496  91.6798457
  16.8990480  59.6496986  90.6140230  17.3650932  60.4824977  90.5400533
  17.3497980  59.1841967  91.3185489  14.9666711  65.9940807  87.6126382
  15.2426555  65.8797401  88.5220256  14.0971209  65.5958292  87.5738555
  14.8707142  52.0177573  94.6531131  13.9570222  52.2481799  94.8213338
  15.3000244  52.1016017  95.5045164  14.6413601  60.2067465  97.1531025
  13.9885051  60.4543372  96.4983478  15.0193981  59.3931603  96.8193503
  11.6020775  70.2427158  91.2559196  11.7843169  69.4248814  91.7186948
  12.4253761  70.4594850  90.8184086  11.9362940  69.1695343  88.5174244
  12.4650707  68.6587797  87.9044406  12.1991160  68.8537873  89.3819777
   4.4088450  54.6029353  98.4776563   4.4729776  55.4644184  98.0653961
   4.3455570  53.9903355  97.7448922  12.5692344  70.2036179  94.8618361
  12.4443483  69.4025918  94.3529306  13.2271435  70.6982372  94.3732331
   4.1900512  56.5584911  94.0395501   3.4687098  57.1720879  93.9002974
   4.9793768  57.0942676  93.9612147  14.6327252  68.0045199  96.4897911
  13.6857588  67.8850550  96.4176238  14.9810025  67.1167697  96.5724172
   2.3894107  56.1643012  88.1807278   2.0606813  55.2840391  87.9982383
   2.7433477  56.1090681  89.0683667  11.6373686  67.7997915  92.6902263
  11.4898648  66.8714622  92.8709833  12.4627179  67.8218006  92.2059338
   5.5035930  56.4515982  88.5482755   5.8432002  56.9801903  87.8261364
   5.9508050  56.7896388  89.3241322  15.2407808  68.6226474  93.7767136
  16.1654355  68.4169335  93.6391587  15.0723111  68.3742875  94.6856477
   8.1979371  54.8353033  97.9985823   7.8576191  54.0360846  98.4006503
   7.4918377  55.1354744  97.4262656   8.8495843  51.9202345  96.4513146
   9.6721912  51.4462823  96.3292037   9.0933906  52.6992829  96.9511833
   7.4904077  54.9490604  86.7476048   8.2112440  55.3271856  86.2439765
   6.8669381  55.6679480  86.8511026  11.6335200  55.6535753  87.6834380
  11.8498814  56.5360390  87.3823208  11.1529267  55.2621966  86.9540022
   6.3734421  58.6121466  94.2605125   6.2279002  58.9261769  95.1529406
   5.8959625  59.2306366  93.7076024   8.2330804  55.6024014  94.3086014
   8.2192373  54.7065107  93.9718312   8.9503232  55.6094677  94.9424300
  10.0856935  56.0361354  96.3539142   9.8274713  56.9578425  96.3523472
   9.5541975  55.6391788  97.0439606  15.0303124  69.1412141  89.1329227
  15.2040001  68.5758564  88.3803080  15.5232015  69.9413036  88.9508717
   7.6367700  54.4838394  89.5773585   7.7583611  53.5555040  89.7764472
   7.3469743  54.4977080  88.6651900  10.5058891  52.1693304  92.7140304
  10.5280587  52.2332638  91.7592284  10.9226950  51.3297813  92.9080811
  20.8842515  61.9048564  90.7519527  21.3273661  61.1555889  90.3538650
  20.0069025  61.8958700  90.3693259  16.0178296  68.4578905  86.2326126
  16.7129201  69.0785598  86.4513440  16.3601446  67.6074257  86.5078503
  17.9169719  65.9078611  87.7613456  18.4421043  66.2465884  87.0362776
  17.8292072  64.9725626  87.5776591   9.6010380  71.9750594  92.1208709
   9.1615370  71.4826973  92.8141566  10.3518497  71.4323562  91.8800785
   7.0484252  67.5188603  94.1931011   6.4264262  66.8559308  93.8933239
   7.7189119  67.5449735  93.5104659  17.7261500  63.3903981 100.3797383
  17.7759505  63.2253988 101.3212906  17.6175424  62.5231240  99.9895264
   6.6097759  66.0692527  87.6689472   6.7585880  66.7527991  87.0156144
   7.4164203  66.0497617  88.1838927  15.0165263  59.3734909 101.6956690
  15.9175126  59.2341374 101.4040687  15.0913237  59.5389364 102.6354867
   9.3508068  56.7501764 100.5409876   8.4811378  57.0435330 100.2692464
   9.5867549  57.3342209 101.2617139  19.2279697  65.8100923 100.6239404
  18.9364506  66.1730903 101.4602865  18.6151829  65.0967931 100.4452736
  20.4275380  63.3753802  93.1441975  21.2622271  63.8143606  93.3079535
  20.5634508  62.8992456  92.3250220  17.4766886  60.9333537  99.0919462
  17.9521007  61.1261183  98.2838314  16.5532451  60.9892723  98.8462846
   4.3650392  62.0957704  88.6750541   4.1196434  61.1920034  88.8730751
   4.5346307  62.0974855  87.7330019  12.0547102  52.9681381  98.0575296
  12.5729046  53.7042408  97.7321785  11.7002235  53.2745374  98.8922055
   3.6346040  57.8286062  86.1736702   2.9415285  57.9030417  85.5176738
   3.3897792  57.0646406  86.6958219  12.3059696  49.3881663  93.5776193
  12.5861450  48.7204852  94.2036619  13.0910303  49.5810759  93.0650857
  10.1093165  68.5640657  85.1401219   9.5367132  69.1830844  84.6871691
  10.6825958  69.1140019  85.6741141  16.1768555  57.8099297  97.3247768
  17.1285977  57.9097395  97.3459992  16.0072005  57.0177566  97.8345852
  14.1982934  54.8954880  97.5107169  13.6032866  55.1759893  96.8153657
  13.9132631  55.3848781  98.2823910  13.3290424  68.8477807  86.2709801
  14.2621098  68.7823369  86.4742677  13.2413637  69.6834074  85.8124334
  15.9578441  68.1643678  83.2313749  15.8792073  67.8303541  84.1249507
  16.7788108  68.6565446  83.2305221  18.6556632  61.0305417  96.4390068
  18.6232952  60.0921418  96.6249751  19.2657256  61.1089454  95.7055892
  10.4939963  59.9001470  82.4817272  11.4399068  59.7707678  82.5505690
  10.1154208  59.1616132  82.9586700  18.8051121  57.8216460  96.4848351
  18.2890169  57.0374917  96.2978280  19.6891069  57.4935177  96.6494870
  16.4661848  51.5657476  92.4444163  16.2686669  51.2572564  93.3287495
  17.0761553  52.2919115  92.5742093  24.4733182  62.0921424  95.5796104
  25.2036571  61.8306712  96.1403808  23.8640128  61.3550146  95.6198172
  22.5548479  60.2329286  96.1770556  21.8281643  60.0985251  95.5687047
  22.1395766  60.5406115  96.9827274   8.6782880  57.8251446  82.4172157
   7.7714336  57.5284559  82.4934870   8.9558861  57.5281264  81.5506443
  10.2944946  52.3688336  88.5716398   9.4845674  52.0235421  88.9471644
  10.9829363  52.0595880  89.1604010  12.2235494  51.4466383  90.1940695
  12.7766533  51.8661836  90.8530718  12.4605581  50.5202131  90.2363651
   7.4481665  54.6838382  82.5584136   8.3100829  55.0093280  82.8179953
   7.6332009  53.8969877  82.0457202  15.6014301  53.5566908  89.7019359
  15.0212970  54.2151712  89.3197411  15.3350234  52.7344253  89.2906777
  14.0517868  52.9571966  91.9040679  14.5517646  53.0688500  91.0954998
  14.6953476  52.6533019  92.5441488  14.3839179  55.7166998  88.7575707
  13.4965034  56.0016649  88.5395902  14.7993169  55.5560762  87.9102984
  17.7353716  55.7413519  92.4730047  18.5114106  56.2309972  92.7454663
  17.0101850  56.1671574  92.9301916  20.1726274  56.4541139  93.5303987
  20.7670765  56.2136875  92.8197295  20.2452858  55.7348269  94.1577523
  13.5282393  65.4811673  82.8523727  14.2318243  65.6861676  83.4681383
  12.8045042  66.0488435  83.1172811  14.3580203  61.2321534  88.9725997
  14.3015405  61.6890086  88.1333630  14.9108546  60.4712219  88.7948840
  18.1685009  57.0211266  89.7976117  17.9121943  56.6207902  90.6284325
  17.5437877  57.7355060  89.6726256  22.4797347  59.7607339  92.3047408
  21.9196905  59.8300529  93.0778970  21.8740850  59.5848324  91.5846905
  15.4369090  65.9194202  84.9022187  16.2714694  65.4875401  84.7199662
  15.2753433  65.7476216  85.8299082  15.0914983  62.4226316  86.2678527
  15.0363786  62.2570587  85.3266971  14.4661038  63.1302348  86.4240716
   8.4011108  51.9234425  85.8463845   8.3889778  52.8676264  86.0032116
   9.2934530  51.7404570  85.5523306  12.2163227  48.5177201  90.1009782
  11.4495623  47.9635688  90.2466464  12.6273932  48.5899070  90.9623933
  24.0653365  76.4363853  94.9977364  24.7031775  76.3170601  94.2940704
  23.9474208  77.3844697  95.0565316  20.8743072  76.3891281  94.9338889
  20.5361583  76.2732346  94.0459424  21.7432840  75.9882447  94.9139895
  16.7329887  78.2426758  90.9235780  16.1694753  78.1516695  90.1552067
  16.6182282  77.4226662  91.4038272  22.3129446  81.9097726  86.2350245
  21.6617426  82.4951806  85.8484258  23.1073809  82.4403920  86.2945282
  16.2385073  78.9986863  86.6337379  17.0115949  78.4515850  86.4950255
  16.5910472  79.8631112  86.8451840  19.0026323  77.7040093  96.4305638
  19.5989895  77.4796116  95.7162601  19.0601294  76.9624839  97.0331086
  18.5751351  75.1579529  84.2655829  18.8276872  74.6361050  83.5039292
  17.6375910  74.9945674  84.3682512  23.6194634  74.1615307  92.0730572
  24.4057723  73.7434730  91.7220989  23.8833338  75.0661399  92.2412221
  23.7904711  79.5988157  86.7719229  23.1550544  79.6722784  87.4840134
  23.4602118  80.1881756  86.0938308  29.0203061  74.0990540  92.9763551
  29.7528233  73.5289757  93.2101380  28.2642417  73.7112141  93.4170056
  18.2947640  77.0607635  86.4680204  18.1783898  76.3852538  87.1361288
  18.4049900  76.5740009  85.6512357  20.6379181  76.5217782  90.1726893
  20.2737388  75.9948403  90.8839815  21.4946297  76.1316251  89.9993378
  26.5428481  67.8112114  97.4358159  26.2111806  68.6807525  97.2119374
  25.9474095  67.4948398  98.1152190  20.2784668  71.5507682  85.1688242
  20.4459070  72.4187918  85.5358713  20.0881837  71.7134963  84.2449531
  23.0360001  80.0124660  96.8354072  22.7360724  80.9149699  96.7269879
  22.6911060  79.7456844  97.6875225  16.4872482  76.4638457  92.8690776
  15.5622979  76.3314671  93.0768468  16.7356896  77.2432677  93.3660719
  26.4357145  72.5307201  94.5151509  25.5274022  72.4622609  94.2210270
  26.3844740  73.0079146  95.3433335  20.2573889  74.0065339  86.1534908
  20.1373514  74.4522390  86.9920389  19.5626477  74.3550657  85.5948447
  13.8481293  76.1071731  93.7034565  13.9773675  76.3606210  94.6173977
  13.1678745  76.6999439  93.3839221  18.0180781  86.7768981  89.8025040
  17.9404810  87.7276806  89.8813520  17.4142424  86.4314853  90.4599966
  28.3018791  70.7323639  96.2929383  27.6593171  71.0256172  95.6469178
  27.7973720  70.6176559  97.0982580  25.9558955  74.4786812  86.9815242
  26.8676811  74.7114199  86.8062940  25.4468602  75.0623856  86.4190321
  24.2399722  78.9011440 100.6176535  24.6483078  78.4593851  99.8731167
  23.5176984  78.3264068 100.8710728  20.5930792  73.8384047  97.9910092
  21.4391988  74.2623460  98.1344741  20.5329430  73.1817671  98.6848655
  24.5628537  79.4612631  94.3728824  23.9337400  79.6258345  93.6704892
  24.1754199  79.8754240  95.1439788  28.4417769  80.3967069  91.7273188
  27.7568807  80.7765970  91.1770221  28.5261618  81.0062395  92.4605135
  23.7430238  71.4988415  99.6491266  23.4991170  72.2530476  99.1125541
  24.0190168  71.8773763 100.4838513  25.6968701  78.0427028  98.3268531
  25.9085596  78.6858787  97.6502912  25.6498449  77.2089344  97.8590461
  23.2994930  70.6544848  95.2305103  22.4379409  70.9526102  95.5221841
  23.3257364  70.8715247  94.2986136  20.1156499  79.1987039  91.6378909
  20.5794844  79.4774742  90.8483532  19.8513297  78.2970483  91.4552000
  17.0080580  78.7458520  94.5758672  17.5781937  79.1745789  93.9376157
  17.5988692  78.4641105  95.2742858  19.0525385  75.3210191  88.4468474
  19.7549428  75.7731235  88.9142401  18.7206013  74.6794010  89.0748367
  12.7950719  73.5793744  93.7485608  12.0049773  73.8351272  93.2725718
  13.2861966  74.3942082  93.8537648  26.8114529  80.9198983  96.4990889
  27.6331972  80.5179170  96.2173570  26.8076931  80.8167217  97.4507004
  14.7465464  73.9438323  90.7069084  13.9496628  74.0557017  91.2252580
  14.5191057  74.2824975  89.8409975  34.9020522  77.2637731  92.8475860
  34.1484230  76.6945130  92.6919864  35.0368063  77.2300396  93.7946495
  20.2919150  82.1351134  88.5230579  20.1564824  82.9802670  88.9515427
  20.8328962  82.3370411  87.7596513  13.7448547  79.6526572  89.0958504
  14.2573068  80.4469822  89.2464069  14.3971260  78.9552862  89.0292106
  15.5543432  82.7692328  91.1781258  15.7310060  83.6910293  90.9902242
  16.3500265  82.4550747  91.6075637  19.6954450  69.6300593 102.7765191
  20.4364164  70.2307746 102.6969654  19.9272373  68.8878231 102.2183234
  23.6411613  65.6581696  97.0529473  23.2975883  66.5483337  96.9768583
  24.0090576  65.4683353  96.1899058  11.7097464  77.9815226  89.8718075
  12.5472686  78.3912234  89.6551783  11.8875731  77.0414668  89.8418269
  23.6061896  75.6490307  85.5601908  23.0908519  76.4194911  85.7990295
  23.3339204  74.9755443  86.1834969  21.1909007  70.4940008  90.6187146
  20.3350603  70.1046858  90.4392785  21.6035959  70.5731968  89.7586932
  22.7208154  68.0286351  95.0178706  22.2172949  67.9916486  94.2046511
  23.0138760  68.9379094  95.0775363  18.9651039  68.1125081  94.0244888
  19.8304036  67.9167889  93.6650777  19.0328548  67.8835432  94.9514245
  28.5796170  78.4022661  87.4955081  27.8025613  78.0633821  87.0510244
  29.2587651  78.4075285  86.8210046  23.3948199  73.5217399  87.3861689
  23.0898335  73.8363548  88.2371832  24.3478641  73.5998819  87.4289022
  21.8394631  79.6807622  89.0354643  21.3115992  78.9460382  88.7227881
  21.3382134  80.4582299  88.7894611  26.8187477  77.8756643  94.1521689
  26.1611151  78.5655904  94.2401818  27.6227876  78.2653075  94.4955676
  16.5713359  70.3427288  91.3961255  17.1457110  70.1202470  90.6634448
  17.1584341  70.4115983  92.1489856  25.6292936  76.2301015  92.2025631
  26.1424817  76.8631007  92.7047341  26.2794160  75.6302211  91.8368991
  16.8982946  72.3731749  85.4157140  16.0620258  72.7106436  85.7366415
  16.7587715  72.2380729  84.4784277  18.8736026  67.2168537  90.1236324
  18.2200439  66.9017555  89.4992939  18.8316500  66.5944278  90.8496147
  19.9847231  77.4987832  82.0389616  19.0774293  77.2677086  82.2380765
  20.4818263  76.7025452  82.2263598  22.8915310  86.2085340  84.9586302
  22.2177009  86.5117036  85.5671260  23.2781132  87.0114420  84.6091759
  22.1073767  73.7050471  94.4483972  21.1896328  73.9265418  94.2905660
  22.5233910  73.7796781  93.5895679  22.8908814  75.1041887  89.5786652
  23.6380633  75.6163284  89.2693774  23.1600404  74.7825939  90.4391046
  21.1635465  77.6000427  86.5613606  20.2546684  77.3159460  86.6586076
  21.1930548  78.0199506  85.7016913  26.3954732  81.2107017  90.3304774
  25.9417059  80.3697927  90.3869964  25.7648699  81.8468415  90.6679554
  25.3387652  72.1399003  91.5605441  24.6010408  71.6276389  91.8915684
  25.5914425  71.6999384  90.7488718  24.8387671  83.0483514  91.2654592
  25.1310646  83.6088571  90.5466958  25.3486292  83.3412075  92.0207751
  25.4399279  64.9175255  92.1547211  25.7458156  64.0572618  91.8673126
  26.1651884  65.5092875  91.9546204  11.7323635  75.3205941  90.5428808
  11.5348035  74.7275302  89.8179875  11.1770299  75.0158152  91.2604747
  19.7120359  75.2129048  92.6623402  19.7668968  74.2602884  92.5865878
  18.9011561  75.3688487  93.1464700  20.8611552  79.1409171  83.9001685
  20.4230982  78.4245030  83.4407322  21.6021993  79.3685286  83.3386776
  17.6512719  73.8306108  90.4213780  16.8380584  74.1300278  90.8278973
  18.1471713  73.4361796  91.1388263  19.8021296  83.8263865  92.3548045
  19.7597475  84.0524711  91.4256577  20.7183995  83.5927239  92.5033846
  23.2486930  74.2947932  99.2528674  23.6036318  74.5219405 100.1123140
  23.8959061  74.6266309  98.6305930  28.9784667  77.4166368  89.9578003
  28.8402566  77.6067964  89.0299193  28.6220886  78.1785751  90.4146055
  17.1426793  71.4024463  96.0375015  17.7826173  71.2613222  95.3397979
  16.3104324  71.1158977  95.6613617  29.0054047  79.4842895  94.9689275
  29.4390553  79.3918184  95.8172329  29.7185627  79.4600396  94.3309291
  17.9187097  80.7026894  92.1510008  18.7127696  80.2077214  91.9492583
  17.2078790  80.1744757  91.7877713  22.7381942  83.0844989  96.5022376
  22.7918964  83.6535925  97.2700091  21.8696723  83.2546874  96.1376413
  14.2269861  74.8469975  88.2269761  13.2967449  74.7854431  88.4439723
  14.3227333  74.3245928  87.4306402  14.1455410  71.3724788  90.8148002
  14.4062227  72.2870121  90.7057163  14.9672582  70.9049231  90.9644615
  15.6180335  72.7862545  97.9846827  16.2903388  72.5779907  97.3359476
  14.7910122  72.5884631  97.5452059  29.8669596  79.5266596  97.5022160
  30.0605486  80.4312406  97.7481435  29.7670214  79.0674015  98.3360745
  21.5205907  69.4124486 100.0012488  20.8733822  70.1114436  99.9076964
  22.2906922  69.8460630 100.3688736  21.6970041  77.2505251  98.0609307
  22.6262101  77.4016411  97.8878275  21.2761071  77.3389272  97.2057954
  20.4958373  81.2755916  95.8307845  20.3569459  80.9074700  96.7033783
  19.7072969  81.7903555  95.6591803  21.0906525  86.3765012  87.1733382
  21.2658281  85.9053055  87.9879004  20.4039313  87.0030778  87.4014642
  22.0463588  80.6537518  93.2196683  21.7113421  80.6138288  94.1154333
  21.5467534  79.9882234  92.7467093  24.9822780  77.9993553  83.4933742
  24.3651951  77.2740381  83.3966795  24.5139268  78.7602913  83.1500817
  26.6376912  82.7092461 101.1539523  26.5789458  82.0251681 100.4870106
  27.0396430  83.4511451 100.7020149  16.7721326  72.2178977  82.6155047
  15.8950792  72.0967778  82.2517293  17.2479079  71.4265055  82.3633935
  26.6394319  80.6732045  99.3853502  25.7521098  80.3357967  99.5079901
  27.2092870  79.9415076  99.6222268  19.9585252  84.5705267  89.8617567
  19.1752774  85.1126947  89.9555792  20.6577997  85.0879247  90.2611808
  23.2681902  70.3799897  92.5051773  23.7650602  69.6269859  92.1852843
  22.4968884  70.4164213  91.9394982  31.1211659  76.0840262  94.1470064
  31.1101536  76.9664978  93.7763997  30.2529039  75.7311813  93.9524601
  24.3511683  79.1371584  90.0790196  23.4167961  79.2573046  89.9094900
  24.5288351  78.2344051  89.8150206  19.8516871  72.5217280  92.2323457
  19.4814658  71.9688320  92.9204363  20.3475963  71.9175413  91.6798457
  27.7384234  74.9788903  90.6140230  28.2044686  75.8116895  90.5400533
  28.1891735  74.5133885  91.3185489  25.8060465  81.3232725  87.6126382
  26.0820309  81.2089319  88.5220256  24.9364964  80.9250209  87.5738555
  25.7100897  67.3469490  94.6531131  24.7963977  67.5773717  94.8213338
  26.1393998  67.4307934  95.5045164  25.4807355  75.5359382  97.1531025
  24.8278806  75.7835290  96.4983478  25.8587735  74.7223520  96.8193503
  22.4414529  85.5719075  91.2559196  22.6236924  84.7540731  91.7186948
  23.2647515  85.7886768  90.8184086  22.7756695  84.4987261  88.5174244
  23.3044461  83.9879715  87.9044406  23.0384914  84.1829791  89.3819777
  15.2482204  69.9321271  98.4776563  15.3123531  70.7936101  98.0653961
  15.1849325  69.3195272  97.7448922  11.5000020  73.8120832  88.0567952
  11.7953461  72.9031511  88.0035006  10.5988055  73.7908572  87.7348955
  23.4086098  85.5328096  94.8618361  23.2837238  84.7317836  94.3529306
  24.0665190  86.0274290  94.3732331  15.0294267  71.8876829  94.0395501
  14.3080852  72.5012796  93.9002974  15.8187522  72.4234594  93.9612147
  25.4721007  83.3337116  96.4897911  24.5251342  83.2142468  96.4176238
  25.8203780  82.4459614  96.5724172  17.8320580  69.2231255 100.3136153
  18.3554982  69.4693552 101.0762462  17.6132914  70.0551290  99.8939290
  13.2287861  71.4934930  88.1807278  12.9000567  70.6132309  87.9982383
  13.5827232  71.4382599  89.0683667  22.4767440  83.1289833  92.6902263
  22.3292403  82.2006540  92.8709833  23.3020934  83.1509923  92.2059338
  16.3429684  71.7807900  88.5482755  16.6825757  72.3093821  87.8261364
  16.7901805  72.1188306  89.3241322  26.0801562  83.9518391  93.7767136
  27.0048109  83.7461253  93.6391587  25.9116865  83.7034792  94.6856477
  19.0373125  70.1644950  97.9985823  18.6969946  69.3652763  98.4006503
  18.3312132  70.4646661  97.4262656  19.6889597  67.2494263  96.4513146
  20.5115666  66.7754741  96.3292037  19.9327661  68.0284747  96.9511833
  18.3297832  70.2782521  86.7476048  19.0506194  70.6563774  86.2439765
  17.7063136  70.9971398  86.8511026  22.4728954  70.9827670  87.6834380
  22.6892569  71.8652308  87.3823208  21.9923022  70.5913884  86.9540022
  17.2128176  73.9413383  94.2605125  17.0672757  74.2553686  95.1529406
  16.7353379  74.5598284  93.7076024  19.0724559  70.9315931  94.3086014
  19.0586128  70.0357025  93.9718312  19.7896987  70.9386595  94.9424300
  20.9250689  71.3653272  96.3539142  20.6668467  72.2870342  96.3523472
  20.3935730  70.9683706  97.0439606  25.8696878  84.4704059  89.1329227
  26.0433756  83.9050481  88.3803080  26.3625769  85.2704954  88.9508717
  18.4761455  69.8130312  89.5773585  18.5977366  68.8846958  89.7764472
  18.1863497  69.8268998  88.6651900  21.3452645  67.4985222  92.7140304
  21.3674342  67.5624555  91.7592284  21.7620704  66.6589731  92.9080811
  31.7236269  77.2340482  90.7519527  32.1667415  76.4847807  90.3538650
  30.8462780  77.2250618  90.3693259  26.8572051  83.7870823  86.2326126
  27.5522955  84.4077516  86.4513440  27.1995201  82.9366174  86.5078503
  28.7563474  81.2370529  87.7613456  29.2814798  81.5757801  87.0362776
  28.6685826  80.3017544  87.5776591  20.4404135  87.3042512  92.1208709
  20.0009125  86.8118891  92.8141566  21.1912252  86.7615480  91.8800785
  17.8878007  82.8480521  94.1931011  17.2658016  82.1851226  93.8933239
  18.5582874  82.8741653  93.5104659  28.5655255  78.7195899 100.3797383
  28.6153260  78.5545906 101.3212906  28.4569178  77.8523158  99.9895264
  17.4491514  81.3984444  87.6689472  17.5979634  82.0819909  87.0156144
  18.2557957  81.3789534  88.1838927  25.8559017  74.7026827 101.6956690
  26.7568880  74.5633292 101.4040687  25.9306992  74.8681282 102.6354867
  20.1901823  72.0793681 100.5409876  19.3205132  72.3727248 100.2692464
  20.4261303  72.6634126 101.2617139  30.0673452  81.1392840 100.6239404
  29.7758260  81.5022821 101.4602865  29.4545583  80.4259848 100.4452736
  31.2669134  78.7045720  93.1441975  32.1016025  79.1435524  93.3079535
  31.4028263  78.2284373  92.3250220  28.3160640  76.2625455  99.0919462
  28.7914762  76.4553101  98.2838314  27.3926205  76.3184641  98.8462846
  15.2044147  77.4249622  88.6750541  14.9590189  76.5211952  88.8730751
  15.3740061  77.4266772  87.7330019  22.8940856  68.2973298  98.0575296
  23.4122800  69.0334325  97.7321785  22.5395989  68.6037292  98.8922055
  14.4739794  73.1577980  86.1736702  13.7809039  73.2322335  85.5176738
  14.2291546  72.3938323  86.6958219  23.1453451  64.7173581  93.5776193
  23.4255204  64.0496770  94.2036619  23.9304058  64.9102677  93.0650857
  20.9486919  83.8932575  85.1401219  20.3760886  84.5122762  84.6871691
  21.5219713  84.4431937  85.6741141  27.0162309  73.1391215  97.3247768
  27.9679732  73.2389313  97.3459992  26.8465759  72.3469483  97.8345852
  25.0376688  70.2246798  97.5107169  24.4426621  70.5051811  96.8153657
  24.7526385  70.7140699  98.2823910  24.1684179  84.1769725  86.2709801
  25.1014852  84.1115287  86.4742677  24.0807392  85.0125992  85.8124334
  26.7972196  83.4935595  83.2313749  26.7185827  83.1595459  84.1249507
  27.6181862  83.9857363  83.2305221  29.4950387  76.3597335  96.4390068
  29.4626707  75.4213335  96.6249751  30.1051010  76.4381371  95.7055892
  21.3333718  75.2293388  82.4817272  22.2792822  75.0999596  82.5505690
  20.9547963  74.4908049  82.9586700  29.6444875  73.1508378  96.4848351
  29.1283924  72.3666835  96.2978280  30.5284824  72.8227095  96.6494870
  27.3055602  66.8949394  92.4444163  27.1080423  66.5864482  93.3287495
  27.9155308  67.6211033  92.5742093  35.3126937  77.4213341  95.5796104
  36.0430325  77.1598630  96.1403808  34.7033882  76.6842063  95.6198172
  33.3942234  75.5621204  96.1770556  32.6675397  75.4277169  95.5687047
  32.9789521  75.8698033  96.9827274  19.5176635  73.1543364  82.4172157
  18.6108090  72.8576477  82.4934870  19.7952616  72.8573182  81.5506443
  21.1338701  67.6980254  88.5716398  20.3239429  67.3527339  88.9471644
  21.8223117  67.3887797  89.1604010  23.0629249  66.7758300  90.1940695
  23.6160287  67.1953754  90.8530718  23.2999335  65.8494049  90.2363651
  18.2875419  70.0130299  82.5584136  19.1494583  70.3385197  82.8179953
  18.4725764  69.2261795  82.0457202  26.4408056  68.8858826  89.7019359
  25.8606725  69.5443630  89.3197411  26.1743989  68.0636170  89.2906777
  24.8911622  68.2863883  91.9040679  25.3911401  68.3980418  91.0954998
  25.5347230  67.9824936  92.5441488  25.2232934  71.0458916  88.7575707
  24.3358789  71.3308567  88.5395902  25.6386923  70.8852679  87.9102984
  28.5747470  71.0705437  92.4730047  29.3507860  71.5601889  92.7454663
  27.8495604  71.4963491  92.9301916  31.0120029  71.7833056  93.5303987
  31.6064519  71.5428792  92.8197295  31.0846612  71.0640187  94.1577523
  24.3676147  80.8103591  82.8523727  25.0711998  81.0153593  83.4681383
  23.6438796  81.3780353  83.1172811  25.1973958  76.5613452  88.9725997
  25.1409159  77.0182003  88.1333630  25.7502300  75.8004137  88.7948840
  29.0078764  72.3503184  89.7976117  28.7515698  71.9499819  90.6284325
  28.3831632  73.0646978  89.6726256  33.3191101  75.0899257  92.3047408
  32.7590659  75.1592446  93.0778970  32.7134605  74.9140242  91.5846905
  26.2762845  81.2486120  84.9022187  27.1108449  80.8167318  84.7199662
  26.1147188  81.0768134  85.8299082  25.9308737  77.7518233  86.2678527
  25.8757541  77.5862505  85.3266971  25.3054792  78.4594266  86.4240716
  19.2404862  67.2526342  85.8463845  19.2283532  68.1968182  86.0032116
  20.1328284  67.0696488  85.5523306  23.0556982  63.8469119  90.1009782
  22.2889378  63.2927606  90.2466464  23.4667687  63.9190988  90.9623933
  34.9047120  91.7655771  94.9977364  35.5425530  91.6462518  94.2940704
  34.7867963  92.7136615  95.0565316  31.7136826  91.7183199  94.9338889
  31.3755338  91.6024264  94.0459424  32.5826594  91.3174364  94.9139895
  27.5723642  93.5718676  90.9235780  27.0088507  93.4808612  90.1552067
  27.4576037  92.7518580  91.4038272  33.1523201  97.2389643  86.2350245
  32.5011180  97.8243724  85.8484258  33.9467563  97.7695838  86.2945282
  27.0778828  94.3278780  86.6337379  27.8509704  93.7807767  86.4950255
  27.4304227  95.1923030  86.8451840  29.8420077  93.0332011  96.4305638
  30.4383649  92.8088034  95.7162601  29.8995049  92.2916757  97.0331086
  29.4145106  90.4871446  84.2655829  29.6670626  89.9652968  83.5039292
  28.4769665  90.3237592  84.3682512  34.4588388  89.4907225  92.0730572
  35.2451478  89.0726648  91.7220989  34.7227093  90.3953317  92.2412221
  34.6298466  94.9280075  86.7719229  33.9944299  95.0014702  87.4840134
  34.2995872  95.5173674  86.0938308  39.8596816  89.4282458  92.9763551
  40.5921987  88.8581675  93.2101380  39.1036171  89.0404059  93.4170056
  29.1341394  92.3899552  86.4680204  29.0177652  91.7144456  87.1361288
  29.2443654  91.9031926  85.6512357  31.4772935  91.8509700  90.1726893
  31.1131142  91.3240321  90.8839815  32.3340051  91.4608169  89.9993378
  37.3822236  83.1404032  97.4358159  37.0505561  84.0099443  97.2119374
  36.7867849  82.8240316  98.1152190  31.1178422  86.8799599  85.1688242
  31.2852825  87.7479836  85.5358713  30.9275591  87.0426881  84.2449531
  33.8753755  95.3416578  96.8354072  33.5754478  96.2441617  96.7269879
  33.5304815  95.0748761  97.6875225  27.3266237  91.7930375  92.8690776
  26.4016733  91.6606589  93.0768468  27.5750650  92.5724594  93.3660719
  37.2750899  87.8599118  94.5151509  36.3667777  87.7914527  94.2210270
  37.2238495  88.3371063  95.3433335  31.0967643  89.3357257  86.1534908
  30.9767268  89.7814308  86.9920389  30.4020231  89.6842574  85.5948447
  24.6875048  91.4363649  93.7034565  24.8167429  91.6898127  94.6173977
  24.0072499  92.0291357  93.3839221  39.1412546  86.0615557  96.2929383
  38.4986926  86.3548090  95.6469178  38.6367474  85.9468477  97.0982580
  36.7952709  89.8078730  86.9815242  37.7070565  90.0406117  86.8062940
  36.2862356  90.3915774  86.4190321  35.0793477  94.2303358 100.6176535
  35.4876833  93.7885768  99.8731167  34.3570738  93.6555985 100.8710728
  31.4324547  89.1675965  97.9910092  32.2785742  89.5915378  98.1344741
  31.3723185  88.5109589  98.6848655  35.4022292  94.7904548  94.3728824
  34.7731154  94.9550263  93.6704892  35.0147954  95.2046158  95.1439788
  39.2811523  95.7258986  91.7273188  38.5962562  96.1057888  91.1770221
  39.3655373  96.3354313  92.4605135  34.5823992  86.8280333  99.6491266
  34.3384924  87.5822393  99.1125541  34.8583923  87.2065680 100.4838513
  36.5362455  93.3718945  98.3268531  36.7479350  94.0150705  97.6502912
  36.4892203  92.5381262  97.8590461  34.1388684  85.9836766  95.2305103
  33.2773163  86.2818019  95.5221841  34.1651119  86.2007165  94.2986136
  30.9550253  94.5278956  91.6378909  31.4188599  94.8066659  90.8483532
  30.6907052  93.6262401  91.4552000  27.8474334  94.0750438  94.5758672
  28.4175692  94.5037706  93.9376157  28.4382446  93.7933023  95.2742858
  29.8919139  90.6502109  88.4468474  30.5943183  91.1023153  88.9142401
  29.5599768  90.0085928  89.0748367  23.6344473  88.9085661  93.7485608
  22.8443527  89.1643190  93.2725718  24.1255721  89.7233999  93.8537648
  37.6508283  96.2490901  96.4990889  38.4725727  95.8471088  96.2173570
  37.6470686  96.1459135  97.4507004  25.5859219  89.2730241  90.7069084
  24.7890382  89.3848935  91.2252580  25.3584811  89.6116893  89.8409975
  45.7414276  92.5929649  92.8475860  44.9877984  92.0237047  92.6919864
  45.8761817  92.5592314  93.7946495  31.1312904  97.4643051  88.5230579
  30.9958579  98.3094587  88.9515427  31.6722717  97.6662329  87.7596513
  24.5842302  94.9818489  89.0958504  25.0966822  95.7761740  89.2464069
  25.2365014  94.2844780  89.0292106  26.3937186  98.0984246  91.1781258
  26.5703815  99.0202210  90.9902242  27.1894020  97.7842665  91.6075637
  30.5348205  84.9592510 102.7765191  31.2757918  85.5599664 102.6969654
  30.7666128  84.2170148 102.2183234  34.4805368  80.9873613  97.0529473
  34.1369637  81.8775255  96.9768583  34.8484330  80.7975271  96.1899058
  22.5491218  93.3107144  89.8718075  23.3866440  93.7204152  89.6551783
  22.7269486  92.3706586  89.8418269  34.4455650  90.9782224  85.5601908
  33.9302274  91.7486829  85.7990295  34.1732959  90.3047361  86.1834969
  32.0302761  85.8231925  90.6187146  31.1744358  85.4338776  90.4392785
  32.4429713  85.9023886  89.7586932  33.5601908  83.3578269  95.0178706
  33.0566704  83.3208404  94.2046511  33.8532515  84.2671011  95.0775363
  29.8044794  83.4416998  94.0244888  30.6697791  83.2459807  93.6650777
  29.8722303  83.2127350  94.9514245  39.4189925  93.7314579  87.4955081
  38.6419367  93.3925739  87.0510244  40.0981406  93.7367202  86.8210046
  34.2341954  88.8509317  87.3861689  33.9292089  89.1655466  88.2371832
  35.1872396  88.9290736  87.4289022  32.6788385  95.0099540  89.0354643
  32.1509747  94.2752299  88.7227881  32.1775888  95.7874216  88.7894611
  37.6581231  93.2048560  94.1521689  37.0004906  93.8947822  94.2401818
  38.4621631  93.5944992  94.4955676  27.4107113  85.6719206  91.3961255
  27.9850865  85.4494388  90.6634448  27.9978095  85.7407901  92.1489856
  36.4686690  91.5592933  92.2025631  36.9818572  92.1922925  92.7047341
  37.1187914  90.9594129  91.8368991  27.7376700  87.7023667  85.4157140
  26.9014012  88.0398354  85.7366415  27.5981470  87.5672647  84.4784277
  29.7129781  82.5460455  90.1236324  29.0594193  82.2309472  89.4992939
  29.6710255  81.9236196  90.8496147  30.8240986  92.8279750  82.0389616
  29.9168047  92.5969004  82.2380765  31.3212018  92.0317369  82.2263598
  33.7309064 101.5377257  84.9586302  33.0570763 101.8408954  85.5671260
  34.1174886 102.3406338  84.6091759  32.9467521  89.0342389  94.4483972
  32.0290082  89.2557336  94.2905660  33.3627665  89.1088699  93.5895679
  33.7302569  90.4333804  89.5786652  34.4774388  90.9455201  89.2693774
  33.9994158  90.1117857  90.4391046  32.0029219  92.9292345  86.5613606
  31.0940438  92.6451378  86.6586076  32.0324303  93.3491424  85.7016913
  37.2348486  96.5398934  90.3304774  36.7810814  95.6989844  90.3869964
  36.6042453  97.1760333  90.6679554  36.1781406  87.4690921  91.5605441
  35.4404163  86.9568307  91.8915684  36.4308180  87.0291302  90.7488718
  35.6781426  98.3775431  91.2654592  35.9704400  98.9380488  90.5466958
  36.1880046  98.6703992  92.0207751  36.2793033  80.2467173  92.1547211
  36.5851910  79.3864536  91.8673126  37.0045638  80.8384793  91.9546204
  22.5717389  90.6497859  90.5428808  22.3741789  90.0567220  89.8179875
  22.0164053  90.3450069  91.2604747  30.5514113  90.5420966  92.6623402
  30.6062723  89.5894802  92.5865878  29.7405315  90.6980405  93.1464700
  31.7005307  94.4701089  83.9001685  31.2624737  93.7536948  83.4407322
  32.4415748  94.6977203  83.3386776  28.4906473  89.1598025  90.4213780
  27.6774339  89.4592196  90.8278973  28.9865467  88.7653714  91.1388263
  30.6415051  99.1555782  92.3548045  30.5991230  99.3816629  91.4256577
  31.5577750  98.9219157  92.5033846  34.0880685  89.6239850  99.2528674
  34.4430072  89.8511323 100.1123140  34.7352816  89.9558227  98.6305930
  39.8178422  92.7458286  89.9578003  39.6796320  92.9359882  89.0299193
  39.4614640  93.5077669  90.4146055  27.9820548  86.7316381  96.0375015
  28.6219927  86.5905140  95.3397979  27.1498078  86.4450894  95.6613617
  39.8447801  94.8134813  94.9689275  40.2784308  94.7210102  95.8172329
  40.5579382  94.7892313  94.3309291  28.7580852  96.0318811  92.1510008
  29.5521450  95.5369131  91.9492583  28.0472544  95.5036674  91.7877713
  33.5775696  98.4136907  96.5022376  33.6312718  98.9827843  97.2700091
  32.7090477  98.5838792  96.1376413  25.0663615  90.1761893  88.2269761
  24.1361203  90.1146349  88.4439723  25.1621087  89.6537846  87.4306402
  24.9849164  86.7016706  90.8148002  25.2455981  87.6162039  90.7057163
  25.8066337  86.2341148  90.9644615  26.4574090  88.1154463  97.9846827
  27.1297143  87.9071825  97.3359476  25.6303876  87.9176549  97.5452059
  40.7063351  94.8558513  97.5022160  40.8999241  95.7604324  97.7481435
  40.6063969  94.3965932  98.3360745  32.3599662  84.7416404 100.0012488
  31.7127577  85.4406354  99.9076964  33.1300677  85.1752548 100.3688736
  32.5363796  92.5797169  98.0609307  33.4655856  92.7308328  97.8878275
  32.1154826  92.6681190  97.2057954  31.3352128  96.6047833  95.8307845
  31.1963213  96.2366618  96.7033783  30.5466724  97.1195473  95.6591803
  32.8857343  95.9829436  93.2196683  32.5507175  95.9430206  94.1154333
  32.3861288  95.3174152  92.7467093  35.8216534  93.3285470  83.4933742
  35.2045705  92.6032298  83.3966795  35.3533023  94.0894831  83.1500817
  27.6115080  87.5470895  82.6155047  26.7344547  87.4259695  82.2517293
  28.0872833  86.7556973  82.3633935  37.4788073  96.0023963  99.3853502
  36.5914852  95.6649884  99.5079901  38.0486624  95.2706994  99.6222268
  30.7979006  99.8997185  89.8617567  30.0146528 100.4418865  89.9555792
  31.4971752 100.4171165  90.2611808  34.1075657  85.7091814  92.5051773
  34.6044356  84.9561777  92.1852843  33.3362638  85.7456131  91.9394982
  41.9605414  91.4132180  94.1470064  41.9495290  92.2956895  93.7763997
  41.0922793  91.0603731  93.9524601  35.1905437  94.4663502  90.0790196
  34.2561716  94.5864964  89.9094900  35.3682106  93.5635968  89.8150206
  30.6910625  87.8509197  92.2323457  30.3208413  87.2980238  92.9204363
  31.1869718  87.2467331  91.6798457  38.5777989  90.3080821  90.6140230
  39.0438441  91.1408813  90.5400533  39.0285489  89.8425803  91.3185489
  36.6454220  96.6524642  87.6126382  36.9214064  96.5381237  88.5220256
  35.7758718  96.2542127  87.5738555  36.5494651  82.6761408  94.6531131
  35.6357731  82.9065635  94.8213338  36.9787753  82.7599852  95.5045164
  36.3201110  90.8651300  97.1531025  35.6672560  91.1127207  96.4983478
  36.6981490  90.0515438  96.8193503  33.2808284 100.9010993  91.2559196
  33.4630678 100.0832649  91.7186948  34.1041270 101.1178685  90.8184086
  33.6150449  99.8279178  88.5174244  34.1438216  99.3171633  87.9044406
  33.8778669  99.5121708  89.3819777  26.0875959  85.2613188  98.4776563
  26.1517285  86.1228019  98.0653961  26.0243079  84.6487190  97.7448922
  22.3393774  89.1412750  88.0567952  22.6347215  88.2323428  88.0035006
  21.4381810  89.1200489  87.7348955  34.2479853 100.8620014  94.8618361
  34.1230992 100.0609754  94.3529306  34.9058944 101.3566207  94.3732331
  25.8688021  87.2168746  94.0395501  25.1474607  87.8304714  93.9002974
  26.6581277  87.7526511  93.9612147  36.3114761  98.6629034  96.4897911
  35.3645097  98.5434385  96.4176238  36.6597534  97.7751532  96.5724172
  28.6714335  84.5523173 100.3136153  29.1948737  84.7985469 101.0762462
  28.4526668  85.3843208  99.8939290  24.0681616  86.8226848  88.1807278
  23.7394322  85.9424226  87.9982383  24.4220986  86.7674516  89.0683667
  33.3161195  98.4581750  92.6902263  33.1686157  97.5298458  92.8709833
  34.1414688  98.4801841  92.2059338  27.1823439  87.1099817  88.5482755
  27.5219511  87.6385739  87.8261364  27.6295559  87.4480223  89.3241322
  36.9195316  99.2810309  93.7767136  37.8441864  99.0753170  93.6391587
  36.7510620  99.0326710  94.6856477  29.8766880  85.4936868  97.9985823
  29.5363700  84.6944681  98.4006503  29.1705886  85.7938579  97.4262656
  30.5283352  82.5786180  96.4513146  31.3509421  82.1046659  96.3292037
  30.7721415  83.3576664  96.9511833  29.1691586  85.6074439  86.7476048
  29.8899949  85.9855692  86.2439765  28.5456890  86.3263316  86.8511026
  33.3122709  86.3119588  87.6834380  33.5286323  87.1944226  87.3823208
  32.8316776  85.9205801  86.9540022  28.0521930  89.2705301  94.2605125
  27.9066511  89.5845604  95.1529406  27.5747134  89.8890201  93.7076024
  29.9118313  86.2607849  94.3086014  29.8979882  85.3648942  93.9718312
  30.6290741  86.2678513  94.9424300  31.7644444  86.6945189  96.3539142
  31.5062222  87.6162260  96.3523472  31.2329484  86.2975624  97.0439606
  36.7090633  99.7995976  89.1329227  36.8827510  99.2342399  88.3803080
  37.2019524 100.5996871  88.9508717  29.3155209  85.1422229  89.5773585
  29.4371120  84.2138876  89.7764472  29.0257252  85.1560915  88.6651900
  32.1846400  82.8277140  92.7140304  32.2068096  82.8916473  91.7592284
  32.6014459  81.9881648  92.9080811  42.5630024  92.5632399  90.7519527
  43.0061170  91.8139725  90.3538650  41.6856534  92.5542536  90.3693259
  37.6965805  99.1162741  86.2326126  38.3916710  99.7369433  86.4513440
  38.0388955  98.2658092  86.5078503  39.5957228  96.5662446  87.7613456
  40.1208552  96.9049719  87.0362776  39.5079581  95.6309462  87.5776591
  28.7271761  98.1772439  94.1931011  28.1051771  97.5143144  93.8933239
  29.3976628  98.2033571  93.5104659  39.4049009  94.0487816 100.3797383
  39.4547014  93.8837824 101.3212906  39.2962933  93.1815075  99.9895264
  28.2885268  96.7276362  87.6689472  28.4373388  97.4111826  87.0156144
  29.0951712  96.7081452  88.1838927  36.6952772  90.0318744 101.6956690
  37.5962635  89.8925209 101.4040687  36.7700746  90.1973199 102.6354867
  31.0295577  87.4085599 100.5409876  30.1598887  87.7019165 100.2692464
  31.2655058  87.9926044 101.2617139  42.1062889  94.0337638  93.1441975
  42.9409780  94.4727442  93.3079535  42.2422017  93.5576291  92.3250220
  39.1554395  91.5917372  99.0919462  39.6308516  91.7845019  98.2838314
  38.2319960  91.6476558  98.8462846  26.0437901  92.7541540  88.6750541
  25.7983943  91.8503870  88.8730751  26.2133816  92.7558690  87.7330019
  33.7334611  83.6265216  98.0575296  34.2516555  84.3626243  97.7321785
  33.3789744  83.9329209  98.8922055  25.3133549  88.4869897  86.1736702
  24.6202794  88.5614252  85.5176738  25.0685301  87.7230241  86.6958219
  33.9847205  80.0465499  93.5776193  34.2648959  79.3788688  94.2036619
  34.7697812  80.2394594  93.0650857  31.7880674  99.2224492  85.1401219
  31.2154641  99.8414680  84.6871691  32.3613467  99.7723854  85.6741141
  37.8556064  88.4683133  97.3247768  38.8073486  88.5681230  97.3459992
  37.6859514  87.6761401  97.8345852  35.8770443  85.5538716  97.5107169
  35.2820375  85.8343729  96.8153657  35.5920140  86.0432617  98.2823910
  35.0077933  99.5061643  86.2709801  35.9408607  99.4407204  86.4742677
  34.9201146 100.3417909  85.8124334  37.6365950  98.8227513  83.2313749
  37.5579582  98.4887377  84.1249507  38.4575617  99.3149281  83.2305221
  40.3344141  91.6889252  96.4390068  40.3020461  90.7505253  96.6249751
  40.9444765  91.7673289  95.7055892  32.1727472  90.5585305  82.4817272
  33.1186577  90.4291513  82.5505690  31.7941717  89.8199967  82.9586700
  40.4838630  88.4800296  96.4848351  39.9677678  87.6958752  96.2978280
  41.3678578  88.1519012  96.6494870  38.1449357  82.2241311  92.4444163
  37.9474178  81.9156399  93.3287495  38.7549062  82.9502950  92.5742093
  46.1520691  92.7505259  95.5796104  46.8824080  92.4890547  96.1403808
  45.5427637  92.0133981  95.6198172  44.2335988  90.8913122  96.1770556
  43.5069152  90.7569087  95.5687047  43.8183275  91.1989950  96.9827274
  30.3570389  88.4835282  82.4172157  29.4501845  88.1868394  82.4934870
  30.6346370  88.1865100  81.5506443  31.9732455  83.0272171  88.5716398
  31.1633183  82.6819256  88.9471644  32.6616872  82.7179715  89.1604010
  33.9023003  82.1050218  90.1940695  34.4554042  82.5245672  90.8530718
  34.1393090  81.1785966  90.2363651  29.1269174  85.3422217  82.5584136
  29.9888338  85.6677115  82.8179953  29.3119518  84.5553713  82.0457202
  37.2801810  84.2150743  89.7019359  36.7000479  84.8735547  89.3197411
  37.0137743  83.3928088  89.2906777  35.7305377  83.6155801  91.9040679
  36.2305155  83.7272336  91.0954998  36.3740985  83.3116854  92.5441488
  36.0626688  86.3750834  88.7575707  35.1752543  86.6600484  88.5395902
  36.4780677  86.2144597  87.9102984  39.4141225  86.3997355  92.4730047
  40.1901615  86.8893807  92.7454663  38.6889359  86.8255409  92.9301916
  41.8513783  87.1124974  93.5303987  42.4458274  86.8720710  92.8197295
  41.9240367  86.3932104  94.1577523  35.2069902  96.1395508  82.8523727
  35.9105752  96.3445511  83.4681383  34.4832551  96.7072270  83.1172811
  36.0367712  91.8905370  88.9725997  35.9802914  92.3473921  88.1333630
  36.5896055  91.1296054  88.7948840  39.8472518  87.6795101  89.7976117
  39.5909452  87.2791737  90.6284325  39.2225386  88.3938895  89.6726256
  44.1584856  90.4191175  92.3047408  43.5984414  90.4884364  93.0778970
  43.5528359  90.2432159  91.5846905  37.1156599  96.5778038  84.9022187
  37.9502203  96.1459236  84.7199662  36.9540942  96.4060051  85.8299082
  36.7702491  93.0810151  86.2678527  36.7151295  92.9154422  85.3266971
  36.1448547  93.7886184  86.4240716  30.0798617  82.5818260  85.8463845
  30.0677287  83.5260100  86.0032116  30.9722039  82.3988405  85.5523306
  33.8950736  79.1761037  90.1009782  33.1283132  78.6219523  90.2466464
  34.3061441  79.2482905  90.9623933  41.9572177 102.2091517  85.1688242
  42.1246579 103.0771753  85.5358713  41.7669346 102.3718799  84.2449531
  41.9361398 104.6649174  86.1534908  41.8161023 105.1106225  86.9920389
  41.2413986 105.0134492  85.5948447  47.6346464 105.1370648  86.9815242
  48.5464320 105.3698034  86.8062940  47.1256111 105.7207692  86.4190321
  45.3199122  96.3165531  97.0529473  44.9763392  97.2067173  96.9768583
  45.6878085  96.1267189  96.1899058  42.8696516 101.1523843  90.6187146
  42.0138112 100.7630693  90.4392785  43.2823468 101.2315804  89.7586932
  44.3995663  98.6870186  95.0178706  43.8960458  98.6500321  94.2046511
  44.6926269  99.5962929  95.0775363  40.6438548  98.7708916  94.0244888
  41.5091545  98.5751725  93.6650777  40.7116057  98.5419268  94.9514245
  45.0735708 104.1801234  87.3861689  44.7685844 104.4947383  88.2371832
  46.0266150 104.2582654  87.4289022  38.2500868 101.0011124  91.3961255
  38.8244619 100.7786305  90.6634448  38.8371850 101.0699818  92.1489856
  38.5770455 103.0315585  85.4157140  37.7407767 103.3690271  85.7366415
  38.4375224 102.8964565  84.4784277  40.5523535  97.8752373  90.1236324
  39.8987948  97.5601390  89.4992939  40.5104009  97.2528113  90.8496147
  44.5696323 105.7625722  89.5786652  45.3168142 106.2747119  89.2693774
  44.8387913 105.4409775  90.4391046  47.0175161 102.7982838  91.5605441
  46.2797917 102.2860224  91.8915684  47.2701934 102.3583220  90.7488718
  47.1186788  95.5759090  92.1547211  47.4245665  94.7156454  91.8673126
  47.8439393  96.1676710  91.9546204  38.8214302 102.0608299  96.0375015
  39.4613682 101.9197058  95.3397979  37.9891833 101.7742812  95.6613617
  35.8242919 102.0308624  90.8148002  36.0849736 102.9453957  90.7057163
  36.6460091 101.5633066  90.9644615  38.4508835 102.8762812  82.6155047
  37.5738301 102.7551613  82.2517293  38.9266588 102.0848891  82.3633935
  44.9469411 101.0383732  92.5051773  45.4438111 100.2853694  92.1852843
  44.1756393 101.0748049  91.9394982  41.5304380 103.1801115  92.2323457
  41.1602167 102.6272155  92.9204363  42.0263472 102.5759249  91.6798457
  47.3888406  98.0053326  94.6531131  46.4751486  98.2357552  94.8213338
  47.8181507  98.0891770  95.5045164  36.9269713 100.5905106  98.4776563
  36.9911040 101.4519937  98.0653961  36.8636834  99.9779108  97.7448922
  36.7081776 102.5460664  94.0395501  35.9868361 103.1596632  93.9002974
  37.4975031 103.0818429  93.9612147  34.9075370 102.1518765  88.1807278
  34.5788076 101.2716144  87.9982383  35.2614741 102.0966434  89.0683667
  38.0217193 102.4391735  88.5482755  38.3613266 102.9677656  87.8261364
  38.4689314 102.7772141  89.3241322  41.3677106  97.9078098  96.4513146
  42.1903175  97.4338576  96.3292037  41.6115170  98.6868582  96.9511833
  40.0085341 100.9366357  86.7476048  40.7293703 101.3147609  86.2439765
  39.3850645 101.6555233  86.8511026  44.1516463 101.6411506  87.6834380
  44.3680078 102.5236143  87.3823208  43.6710531 101.2497719  86.9540022
  40.7512068 101.5899767  94.3086014  40.7373636 100.6940860  93.9718312
  41.4684496 101.5970431  94.9424300  40.1548964 100.4714147  89.5773585
  40.2764875  99.5430793  89.7764472  39.8651006 100.4852833  88.6651900
  43.0240154  98.1569057  92.7140304  43.0461851  98.2208391  91.7592284
  43.4408213  97.3173566  92.9080811  44.8240960  95.3757416  93.5776193
  45.1042713  94.7080605  94.2036619  45.6091567  95.5686512  93.0650857
  43.0121227 105.8877223  82.4817272  43.9580331 105.7583431  82.5505690
  42.6335472 105.1491885  82.9586700  48.9843111  97.5533229  92.4444163
  48.7867932  97.2448317  93.3287495  49.5942817  98.2794868  92.5742093
  41.1964144 103.8127199  82.4172157  40.2895599 103.5160312  82.4934870
  41.4740125 103.5157017  81.5506443  42.8126210  98.3564089  88.5716398
  42.0026938  98.0111174  88.9471644  43.5010626  98.0471633  89.1604010
  44.7416758  97.4342136  90.1940695  45.2947796  97.8537589  90.8530718
  44.9786844  96.5077884  90.2363651  39.9662928 100.6714135  82.5584136
  40.8282092 100.9969033  82.8179953  40.1513273  99.8845630  82.0457202
  48.1195565  99.5442661  89.7019359  47.5394234 100.2027465  89.3197411
  47.8531498  98.7220006  89.2906777  46.5699131  98.9447719  91.9040679
  47.0698910  99.0564253  91.0954998  47.2134739  98.6408772  92.5441488
  46.9020443 101.7042751  88.7575707  46.0146298 101.9892402  88.5395902
  47.3174432 101.5436515  87.9102984  50.6866273 103.0087019  89.7976117
  50.4303207 102.6083655  90.6284325  50.0619141 103.7230813  89.6726256
  40.9192371  97.9110178  85.8463845  40.9071041  98.8552017  86.0032116
  41.8115793  97.7280323  85.5523306  44.7344491  94.5052954  90.1009782
  43.9676887  93.9511441  90.2466464  45.1455196  94.5774823  90.9623933
   2.1117204  25.9466445  73.4964536   1.4763037  26.0201071  74.2085440
   1.7814610  26.5360044  72.8183615   7.3415553  20.4468828  79.7008857
   8.0740725  19.8768044  79.9346687   6.5854909  20.0590428  80.1415363
   4.2771447  20.8265100  73.7060549   5.1889303  21.0592486  73.5308247
   3.7681094  21.4102144  73.1435628   2.8841029  25.8090918  81.0974131
   2.2549892  25.9736632  80.3950198   2.4966691  26.2232528  81.8685095
   6.7630261  26.7445356  78.4518494   6.0781299  27.1244257  77.9015528
   6.8474111  27.3540682  79.1850442  13.2233014  23.6116019  79.5721167
  12.4696722  23.0423417  79.4165171  13.3580555  23.5778683  80.5191801
   1.9274388  21.9968594  72.2847215   1.4121012  22.7673199  72.5235602
   1.6551697  21.3233730  72.9080276   6.9008662  24.7500949  74.2200388
   6.1238105  24.4112108  73.7755550   7.5800143  24.7553572  73.5455353
   1.7160691  19.8695686  74.1106996   1.4110827  20.1841835  74.9617139
   2.6691133  19.9477106  74.1534329   5.1399969  24.2234930  80.8766996
   4.4823644  24.9134191  80.9647125   5.9440368  24.6131362  81.2200982
   3.9505428  22.5779303  78.9270938   4.4637310  23.2109294  79.4292648
   4.6006652  21.9780498  78.5614298   1.2127802  32.5563627  71.6831609
   0.5389501  32.8595324  72.2916567   1.5993624  33.3592707  71.3337066
   1.2121307  21.4520174  76.3031959   1.9593126  21.9641571  75.9939081
   1.4812896  21.1304227  77.1636352   4.7167224  27.5585304  77.0550080
   4.2629551  26.7176214  77.1115271   4.0861191  28.1946702  77.3924861
   3.1600163  29.3961801  77.9899899   3.4523138  29.9566858  77.2712264
   3.6698784  29.6890362  78.7453058   7.2997159  23.7644655  76.6823310
   7.1615058  23.9546251  75.7544499   6.9433378  24.5264038  77.1391361
   7.3266539  25.8321182  81.6934582   7.7603046  25.7396471  82.5417636
   8.0398120  25.8078683  81.0554598   3.3035272  24.3471840  70.2179049
   2.6864443  23.6218668  70.1212102   2.8351761  25.1081200  69.8746123
   9.4424152  22.4318550  80.8715371   9.4314028  23.3143265  80.5009304
   8.5741531  22.0790100  80.6769908   2.6724175  25.4849871  76.8035503
   1.7380454  25.6051334  76.6340207   2.8500843  24.5822338  76.5395512
   6.0596726  21.3267190  77.3385537   6.5257179  22.1595182  77.2645839
   6.5104227  20.8612172  78.0430795   4.1272957  27.6711012  74.3371689
   4.4032801  27.5567606  75.2465563   3.2577456  27.2728497  74.2983862
   0.7627021  31.9197363  77.9804502   0.9449416  31.1019019  78.4432255
   1.5860007  32.1365055  77.5429392   1.0969187  30.8465548  75.2419551
   1.6256953  30.3358002  74.6289713   1.3597407  30.5308078  76.1065084
   1.7298591  31.8806383  81.5863667   1.6049730  31.0796123  81.0774613
   2.3877682  32.3752577  81.0977637   3.7933499  29.6815404  83.2143217
   2.8463835  29.5620755  83.1421544   4.1416272  28.7937902  83.2969479
   0.7979932  29.4768120  79.4147570   0.6504895  28.5484827  79.5955140
   1.6233426  29.4988211  78.9304645   4.4014054  30.2996679  80.5012442
   5.3260602  30.0939540  80.3636894   4.2329358  30.0513080  81.4101784
   4.1909371  30.8182346  75.8574534   4.3646248  30.2528768  75.1048386
   4.6838262  31.6183241  75.6754024  10.0448762  23.5818769  77.4764834
  10.4879908  22.8326094  77.0783957   9.1675272  23.5728905  77.0938566
   5.1784543  30.1349110  72.9571432   5.8735448  30.7555803  73.1758747
   5.5207693  29.2844462  73.2323810   7.0775966  27.5848816  74.4858763
   7.6027290  27.9236089  73.7608083   6.9898319  26.6495831  74.3021898
   9.5881626  25.0524007  79.8687281  10.4228518  25.4913811  80.0324842
   9.7240755  24.5762660  79.0495527   2.4896671  30.5248012  72.9955108
   3.4227344  30.4593574  73.1987984   2.4019884  31.3604279  72.5369641
   5.1184688  29.8413883  69.9559056   5.0398319  29.5073746  70.8494814
   5.9394355  30.3335650  69.9550528  13.6339429  23.7691629  82.3041411
  14.3642817  23.5076917  82.8649114  13.0246374  23.0320351  82.3443479
   4.7620548  15.2337113  76.4264666   4.1819217  15.8921917  76.0442718
   4.4956481  14.4114457  76.0152083   3.5445426  17.3937203  75.4821014
   2.6571281  17.6786854  75.2641209   3.9599415  17.2330967  74.6348291
   2.6888640  27.1581878  69.5769034   3.3924490  27.3631880  70.1926690
   1.9651288  27.7258640  69.8418117   3.5186450  22.9091739  75.6971304
   3.4621651  23.3660291  74.8578936   4.0714792  22.1482424  75.5194147
   7.3291256  18.6981471  76.5221424   7.0728190  18.2978107  77.3529631
   6.7044124  19.4125265  76.3971563  11.6403594  21.4377544  79.0292715
  11.0803152  21.5070734  79.8024277  11.0347097  21.2618529  78.3092211
   4.5975337  27.5964407  71.6267494   5.4320941  27.1645606  71.4444969
   4.4359680  27.4246421  72.5544388   4.2521229  24.0996520  72.9923833
   4.1970033  23.9340792  72.0512277   3.6267285  24.8072553  73.1486023
  13.2259612  38.1134058  81.7222671  13.8638022  37.9940806  81.0186011
  13.1080455  39.0614902  81.7810623  10.0349318  38.0661486  81.6584195
   9.6967830  37.9502551  80.7704730  10.9039087  37.6652651  81.6385202
   5.8936134  39.9196963  77.6481086   5.3300999  39.8286900  76.8797374
   5.7788529  39.0996867  78.1283579  10.5169101  39.2196338  87.6170401
  10.5057742  38.8249136  86.7450905  10.6789741  38.4862411  88.2104172
   3.4400566  41.4148154  80.4865307   4.2321858  41.0738979  80.0711606
   3.6797216  41.5243129  81.4067460  11.4735693  43.5867930  72.9595551
  10.8223673  44.1722011  72.5729565  12.2680056  44.1174125  73.0190589
   5.3991320  40.6757068  73.3582686   6.1722196  40.1286055  73.2195561
   5.7516719  41.5401317  73.5697147   7.2376363  42.0033450  86.5649585
   6.9466229  42.9079081  86.4496251   7.8733347  42.0449977  87.2793654
   8.1632569  39.3810298  83.1550945   8.7596142  39.1566321  82.4407908
   8.2207541  38.6395044  83.7576392   7.7357598  36.8349734  70.9901136
   7.9883119  36.3131255  70.2284599   6.7982157  36.6715879  71.0927819
  12.7800881  35.8385512  78.7975879  13.5663970  35.4204935  78.4466296
  13.0439585  36.7431604  78.9657527  12.9510958  41.2758362  73.4964536
  12.3156791  41.3492989  74.2085440  12.6208364  41.8651961  72.8183615
  18.1809308  35.7760745  79.7008857  18.9134480  35.2059962  79.9346687
  17.4248663  35.3882346  80.1415363   7.4553887  38.7377840  73.1925510
   7.3390145  38.0622743  73.8606595   7.5656146  38.2510214  72.3757664
   9.7985428  38.1987987  76.8972200   9.4343635  37.6718608  77.6085121
  10.6552543  37.8086456  76.7238685  15.7034728  29.4882319  84.1603466
  15.3718053  30.3577730  83.9364681  15.1080342  29.1718603  84.8397496
   9.4390914  33.2277886  71.8933548   9.6065317  34.0958123  72.2604019
   9.2488084  33.3905168  70.9694837  12.1966248  41.6894865  83.5599379
  11.8966971  42.5919904  83.4515186  11.8517307  41.4227049  84.4120531
   5.6478729  38.1408662  79.5936083   4.7229226  38.0084876  79.8013775
   5.8963142  38.9202881  80.0906025  15.5963391  34.2077406  81.2396816
  14.6880269  34.1392814  80.9455577  15.5450987  34.6849351  82.0678641
   9.4180135  35.6835544  72.8780215   9.2979761  36.1292595  73.7165695
   8.7232724  36.0320862  72.3193753   3.0087540  37.7841936  80.4279872
   3.1379921  38.0376415  81.3419284   2.3284991  38.3769644  80.1084527
   7.1787027  48.4539186  76.5270346   7.1011057  49.4047011  76.6058827
   6.5748671  48.1085058  77.1845273   9.6704257  35.6267051  89.1831713
   8.8937591  36.1860971  89.1734578  10.3094820  36.1123834  89.7046583
  17.4625038  32.4093844  83.0174690  16.8199418  32.7026377  82.3714484
  16.9579966  32.2946764  83.8227887  15.1165202  36.1557017  73.7060549
  16.0283058  36.3884404  73.5308247  14.6074849  36.7394061  73.1435628
   7.9250630  38.4352505  88.7449680   8.6665314  38.9737548  88.4684504
   7.2187615  39.0618793  88.9021232  13.4005969  40.5781645  87.3421842
  13.8089325  40.1364056  86.5976474  12.6783231  40.0034273  87.5956035
   9.7537039  35.5154252  84.7155399  10.5998234  35.9393665  84.8590048
   9.6935677  34.8587876  85.4093962  13.7234784  41.1382836  81.0974131
  13.0943646  41.3028550  80.3950198  13.3360446  41.5524445  81.8685095
  17.6024016  42.0737273  78.4518494  16.9175054  42.4536175  77.9015528
  17.6867865  42.6832600  79.1850442  12.9036485  33.1758620  86.3736572
  12.6597416  33.9300681  85.8370848  13.1796415  33.5543968  87.2083819
  14.8574947  39.7197232  85.0513838  15.0691843  40.3628992  84.3748219
  14.8104696  38.8859549  84.5835768  12.4601176  32.3315053  81.9550410
  11.5985655  32.6296307  82.2467148  12.4863611  32.5485452  81.0231443
   9.2762746  40.8757244  78.3624216   9.7401091  41.1544947  77.5728838
   9.0119544  39.9740688  78.1797306   6.1686827  40.4228725  81.3003979
   6.7388184  40.8515994  80.6621463   6.7594939  40.1411310  81.9988165
   8.2131632  36.9980396  75.1713781   8.9155675  37.4501440  75.6387707
   7.8812260  36.3564215  75.7993674   1.9556966  35.2563949  80.4730914
   1.1656020  35.5121477  79.9971025   2.4468213  36.0712287  80.5782955
  15.9720775  42.5969188  83.2236195  16.7938219  42.1949375  82.9418877
  15.9683178  42.4937422  84.1752311   3.9071711  35.6208528  77.4314391
   3.1102874  35.7327222  77.9497887   3.6797303  35.9595180  76.5655282
   9.7377379  42.1453231  85.3796906   9.8021811  42.6073638  86.2155078
   9.0288303  41.5150596  85.5079216  24.0626768  38.9407936  79.5721167
  23.3090477  38.3715334  79.4165171  24.1974310  38.9070601  80.5191801
   9.4525396  43.8121339  75.2475886   9.3171071  44.6572874  75.6760734
   9.9935209  44.0140616  74.4841820   2.9054794  41.3296777  75.8203811
   3.4179314  42.1240027  75.9709376   3.5577507  40.6323067  75.7537413
   4.7149678  44.4462533  77.9026564   4.8916307  45.3680498  77.7147548
   5.5106512  44.1320952  78.3320944   4.0002035  36.4927165  87.7788728
   3.8855550  35.5912422  88.0795826   3.1446553  36.7390862  87.4273544
  11.0793873  44.4344905  89.3776228  10.6357727  43.6481284  89.0597133
  11.7411086  44.6224056  88.7120119   5.8380994  45.9640707  83.9036907
   6.3888419  45.8357770  83.1313901   4.9992470  46.2635596  83.5531799
  13.1775111  44.7147705  87.4057629  13.1593586  45.5356586  86.9137899
  14.0995031  44.5901780  87.6307771   9.6348165  42.2291835  88.2481138
  10.1676502  41.4680123  88.0180446   9.1062246  41.9365486  88.9905292
  12.8017860  27.3351901  83.7774779  12.4582129  28.2253542  83.7013890
  13.1696823  27.1453558  82.9144365   0.8703711  39.6585431  76.5963382
   1.7078933  40.0682439  76.3797089   1.0481978  38.7184873  76.5663576
  12.7668143  37.3260512  72.2847215  12.2514766  38.0965116  72.5235602
  12.4945451  36.6525648  72.9080276  10.3515254  32.1710212  77.3432453
   9.4956850  31.7817063  77.1638092  10.7642205  32.2502173  76.4832239
  11.8814400  29.7056556  81.7424013  11.3779196  29.6686691  80.9291818
  12.1745007  30.6149298  81.8020669   8.1257286  29.7895285  80.7490194
   8.9910283  29.5938094  80.3896084   8.1934795  29.5605637  81.6759551
  17.7402417  40.0792866  74.2200388  16.9631860  39.7404026  73.7755550
  18.4193898  40.0845490  73.5455353  12.5554446  35.1987604  74.1106996
  12.2504581  35.5133753  74.9617139  13.5084888  35.2769024  74.1534329
  11.0000878  41.3577827  75.7599950  10.4722239  40.6230587  75.4473187
  10.4988380  42.1352503  75.5139918  15.9793724  39.5526848  80.8766996
  15.3217398  40.2426109  80.9647125  16.7834123  39.9423280  81.2200982
   5.7319605  32.0197493  78.1206561   6.3063357  31.7972675  77.3879754
   6.3190588  32.0886188  78.8735163  14.7899183  37.9071220  78.9270938
  15.3031064  38.5401212  79.4292648  15.4400406  37.3072416  78.5614298
   6.0589192  34.0501954  72.1402447   5.2226505  34.3876641  72.4611721
   5.9193962  33.9150934  71.2029584   8.0342273  28.8938742  76.8481631
   7.3806685  28.5787759  76.2238245   7.9922747  28.2714483  77.5741454
   9.1453478  39.1758037  68.7634923   8.2380540  38.9447291  68.9626072
   9.6424510  38.3795657  68.9508904  12.0521557  47.8855545  71.6831609
  11.3783256  48.1887241  72.2916567  12.4387379  48.6884625  71.3337066
  11.2680013  35.3820676  81.1729278  10.3502575  35.6035623  81.0150966
  11.6840157  35.4566986  80.3140986  12.0515061  36.7812092  76.3031959
  12.7986880  37.2933489  75.9939081  12.3206651  36.4596144  77.1636352
  10.3241711  39.2770632  73.2858913   9.4152931  38.9929665  73.3831383
  10.3536795  39.6969711  72.4262220  15.5560979  42.8877222  77.0550080
  15.1023306  42.0468132  77.1115271  14.9254945  43.5238620  77.3924861
  14.4993898  33.8169208  78.2850748  13.7616655  33.3046594  78.6160990
  14.7520672  33.3769589  77.4734025  13.9993918  44.7253718  77.9899899
  14.2916892  45.2858776  77.2712264  14.5092539  45.0182279  78.7453058
  14.6005526  26.5945460  78.8792517  14.9064402  25.7342823  78.5918432
  15.3258130  27.1863080  78.6791511   8.8726605  36.8899253  79.3868708
   8.9275215  35.9373089  79.3111185   8.0617807  37.0458692  79.8710007
  10.0217799  40.8179376  70.6246991   9.5837229  40.1015235  70.1652629
  10.7628240  41.0455491  70.0632083   6.8118965  35.5076313  77.1459087
   5.9986831  35.8070483  77.5524279   7.3077959  35.1132001  77.8633569
   8.9627543  45.5034070  79.0793352   8.9203722  45.7294916  78.1501884
   9.8790242  45.2697444  79.2279153  12.4093177  35.9718137  85.9773981
  12.7642565  36.1989610  86.8368447  13.0565308  36.3036514  85.3551236
  18.1390914  39.0936573  76.6823310  18.0008812  39.2838169  75.7544499
  17.7827133  39.8555956  77.1391361   6.3033040  33.0794668  82.7620322
   6.9432419  32.9383427  82.0643285   5.4710571  32.7929181  82.3858924
  18.1660294  41.1613100  81.6934582  18.5996800  41.0688389  82.5417636
  18.8791874  41.1370600  81.0554598   7.0793344  42.3797099  78.8755315
   7.8733942  41.8847419  78.6737889   6.3685036  41.8514962  78.5123020
  11.8988188  44.7615194  83.2267682  11.9525211  45.3306130  83.9945398
  11.0302970  44.9317079  82.8621719   3.3876107  36.5240180  74.9515067
   2.4573696  36.4624636  75.1685029   3.4833579  36.0016133  74.1551708
   3.3061656  33.0494993  77.5393309   3.5668474  33.9640326  77.4302469
   4.1278829  32.5819436  77.6889922   4.7786582  34.4632750  84.7092133
   5.4509635  34.2550112  84.0604782   3.9516368  34.2654836  84.2697366
  19.0275843  41.2036801  84.2267467  19.2211733  42.1082611  84.4726742
  18.9276461  40.7444220  85.0606052  10.6812154  31.0894691  86.7257794
  10.0340069  31.7884641  86.6322271  11.4513169  31.5230835  87.0934042
  14.0890952  41.3543543  89.8008348  13.9376458  41.1254095  88.8838431
  14.0795631  42.3114145  89.8139693  10.8576288  38.9275456  84.7854614
  11.7868348  39.0786616  84.6123581  10.4367318  39.0159477  83.9303261
   9.6564620  42.9526121  82.5553152   9.5175706  42.5844905  83.4279090
   8.8679216  43.4673760  82.3837109  10.2512772  48.0535217  73.8978688
  10.4264528  47.5823260  74.7124311   9.5645560  48.6800983  74.1259949
  11.2069835  42.3307723  79.9441989  10.8719668  42.2908493  80.8399639
  10.7073781  41.6652439  79.4712400   5.1814079  37.7375353  85.4694571
   5.0433877  37.0055592  86.0706110   6.0919003  37.6484253  85.1878758
  14.1429027  39.6763758  70.2179049  13.5258197  38.9510586  70.1212102
  13.6745515  40.4373118  69.8746123   7.8096380  37.4495313  84.9578250
   8.5195998  36.8088505  84.9164869   7.7665688  37.7008207  85.8804431
  15.7983158  44.3862666  87.8784829  15.7395705  43.7021886  87.2115412
  16.2002677  45.1281656  87.4265455   6.5225314  34.4360530  86.7773890
   5.9862671  33.9851269  87.4295486   5.9342022  34.5706439  86.0344354
   4.8173857  51.2024580  80.6718548   5.0570455  51.8343104  81.3497567
   3.9743054  50.8512620  80.9583908   5.9327573  33.8949182  69.3400353
   5.0557039  33.7737983  68.9762600   6.4085326  33.1035260  69.0879242
  15.8000566  42.3502250  86.1098809  14.9127344  42.0128172  86.2325208
  16.3699117  41.6185281  86.3467574   2.2564435  33.5716538  83.8626884
   2.1722624  32.9642208  83.1277294   1.4347141  34.0625556  83.8636381
   9.3301719  47.0103702  83.0760052   9.2571891  47.8158674  83.5879357
   8.8879112  47.2095668  82.2508074   9.1191499  46.2475472  76.5862874
   8.3359021  46.7897152  76.6801098   9.8184244  46.7649452  76.9857115
  12.4288149  32.0570102  79.2297079  12.9256848  31.3040064  78.9098149
  11.6575130  32.0934418  78.6640289  20.2817906  37.7610467  80.8715371
  20.2707782  38.6435183  80.5009304  19.4135286  37.4082018  80.6769908
  11.7900403  46.9090536  85.2318211  12.5028375  47.5438001  85.1594112
  11.2990431  47.0054402  84.4158213  13.5117929  40.8141789  76.8035503
  12.5774208  40.9343251  76.6340207  13.6894598  39.9114256  76.5395512
   9.0123118  34.1987485  78.9568764   8.6420905  33.6458525  79.6449669
   9.5082210  33.5945618  78.4043764  16.8990481  36.6559108  77.3385537
  17.3650933  37.4887100  77.2645839  17.3497981  36.1904090  78.0430795
   6.8412316  44.6584980  86.0523782   7.5421776  45.2921463  86.2053176
   6.3707431  44.9999711  85.2919421  14.9666712  43.0002929  74.3371689
  15.2426556  42.8859524  75.2465563  14.0971211  42.6020414  74.2983862
  14.8707144  29.0239695  81.3776438  13.9570223  29.2543922  81.5458645
  15.3000245  29.1078139  82.2290470  14.6413602  37.2129587  83.8776332
  13.9885052  37.4605495  83.2228785  15.0193982  36.3993725  83.5438809
  11.6020776  47.2489280  77.9804502  11.7843170  46.4310936  78.4432255
  12.4253762  47.4656973  77.5429392  11.9362941  46.1757465  75.2419551
  12.4650708  45.6649920  74.6289713  12.1991161  45.8599996  76.1065084
  10.6901175  37.9549398  90.3642369  10.0141812  37.8543528  91.0344744
  11.5128809  37.7988612  90.8278366   2.4380034  44.1921335  82.9854884
   3.0233471  43.4465023  83.1182789   2.2404873  44.5025291  83.8691548
   5.2918689  47.2272582  78.0017327   4.6229065  47.7118710  77.5181367
   5.1531559  47.4741803  78.9160705   9.4323958  49.2616326  84.5999985
   9.9842266  49.4247947  85.3649070   9.7730151  49.8520763  83.9280010
   4.4088451  31.6091475  85.2021870   4.4729778  32.4706306  84.7899268
   4.3455571  30.9965477  84.4694228  14.2834832  44.0877583  90.4548640
  14.8274736  44.7007541  89.9603594  13.7021677  44.6457162  90.9715653
  12.5692345  47.2098301  81.5863667  12.4443485  46.4088041  81.0774613
  13.2271436  47.7044495  81.0977637   4.1900513  33.5647034  80.7640808
   3.4687099  34.1783001  80.6248281   4.9793769  34.1004798  80.6857454
  14.6327254  45.0107321  83.2143217  13.6857589  44.8912672  83.1421544
  14.9810027  44.1229819  83.2969479   2.3894108  33.1705135  74.9052584
   2.0606814  32.2902514  74.7227690   2.7433479  33.1152803  75.7928973
  11.6373687  44.8060037  79.4147570  11.4898649  43.8776745  79.5955140
  12.4627180  44.8280128  78.9304645   5.5035931  33.4578105  75.2728062
   5.8432004  33.9864026  74.5506670   5.9508052  33.7958511  76.0486628
  15.2407809  45.6288596  80.5012442  16.1654356  45.4231458  80.3636894
  15.0723112  45.3804997  81.4101784   8.1979372  31.8415155  84.7231130
   7.8576192  31.0422968  85.1251810   7.4918378  32.1416866  84.1507963
   8.8495844  28.9264468  83.1758453   9.6721913  28.4524946  83.0537343
   9.0933907  29.7054951  83.6757139   7.4904078  31.9552726  73.4721355
   8.2112441  32.3333979  72.9685071   6.8669382  32.6741603  73.5756333
  11.6335201  32.6597875  74.4079687  11.8498816  33.5422513  74.1068515
  11.1529268  32.2684089  73.6785329   6.3734423  35.6183588  80.9850432
   6.2279003  35.9323891  81.8774713   5.8959626  36.2368489  80.4321330
   8.2330806  32.6086136  81.0331321   8.2192374  31.7127230  80.6963619
   8.9503234  32.6156800  81.6669607  10.0856936  33.0423477  83.0784448
   9.8274714  33.9640547  83.0768779   9.5541977  32.6453911  83.7684913
  15.0303125  46.1474264  75.8574534  15.2040003  45.5820686  75.1048386
  15.5232016  46.9475159  75.6754024   7.6367701  31.4900517  76.3018891
   7.7583613  30.5617163  76.5009779   7.3469744  31.5039203  75.3897207
  10.5058892  29.1755427  79.4385611  10.5280589  29.2394760  78.4837591
  10.9226951  28.3359936  79.6326117  20.8842516  38.9110687  77.4764834
  21.3273662  38.1618012  77.0783957  20.0069026  38.9020823  77.0938566
  16.0178297  45.4641028  72.9571432  16.7129202  46.0847721  73.1758747
  16.3601448  44.6136379  73.2323810   1.6346107  37.2858829  86.8168250
   0.8927843  37.4341464  87.4032880   1.3138851  37.5467095  85.9534999
  17.9169721  42.9140734  74.4858763  18.4421045  43.2528006  73.7608083
  17.8292073  41.9787749  74.3021898   9.5789769  46.8274807  86.6148640
   9.8876896  46.5823954  87.4871339  10.3765251  47.0321446  86.1267510
   9.6010381  48.9812717  78.8454016   9.1615372  48.4889096  79.5386873
  10.3518498  48.4385685  78.6046091   2.0802720  45.1724258  78.8478644
   2.9060740  44.8728030  78.4677288   1.7296772  44.4031880  79.2968433
   7.0484253  44.5250726  80.9176318   6.4264263  43.8621431  80.6178546
   7.7189120  44.5511858  80.2349966  17.6063627  43.5473637  89.7909961
  16.8159170  43.5297776  89.2514460  17.3696981  44.0861931  90.5458997
  17.7261502  40.3966104  87.1042689  17.7759507  40.2316111  88.0458212
  17.6175425  39.5293363  86.7140570   6.6097760  43.0754649  74.3934778
   6.7585881  43.7590114  73.7401451   7.4164204  43.0559739  74.9084234
  15.0165264  36.3797032  88.4201996  15.9175127  36.2403496  88.1285994
  15.0913239  36.5451486  89.3600174   9.3508069  33.7563886  87.2655182
   8.4811379  34.0497452  86.9937771   9.5867550  34.3404331  87.9862446
  19.2279699  42.8163045  87.3484711  18.9364507  43.1793026  88.1848172
  18.6151830  42.1030053  87.1698043  20.4275381  40.3815925  79.8687281
  21.2622272  40.8205729  80.0324842  20.5634510  39.9054578  79.0495527
  17.4766887  37.9395660  85.8164769  17.9521008  38.1323306  85.0083620
  16.5532452  37.9954846  85.5708153   4.3650393  39.1019827  75.3995847
   4.1196435  38.1982157  75.5976057   4.5346308  39.1036977  74.4575325
  12.0547103  29.9743503  84.7820603  12.5729047  30.7104530  84.4567091
  11.7002236  30.2807497  85.6167362   3.6346041  34.8348185  72.8982009
   2.9415286  34.9092539  72.2422045   3.3897793  34.0708528  73.4203526
  12.3059697  26.3943786  80.3021499  12.5861451  25.7266975  80.9281926
  13.0910304  26.5872881  79.7896163  10.1093166  45.5702780  71.8646526
   9.5367133  46.1892967  71.4116998  10.6825960  46.1202141  72.3986448
  16.1768556  34.8161420  84.0493075  17.1285979  34.9159517  84.0705299
  16.0072006  34.0239688  84.5591159  14.1982935  31.9017003  84.2352475
  13.6032867  32.1822016  83.5398964  13.9132632  32.3910904  85.0069217
  13.3290426  45.8539930  72.9955108  14.2621099  45.7885492  73.1987984
  13.2413639  46.6896197  72.5369641  15.9578442  45.1705800  69.9559056
  15.8792074  44.8365664  70.8494814  16.7788109  45.6627568  69.9550528
  18.6556634  38.0367540  83.1635374  18.6232954  37.0983540  83.3495058
  19.2657257  38.1151576  82.4301199  10.4939964  36.9063593  69.2062578
  11.4399069  36.7769801  69.2750996  10.1154209  36.1678254  69.6832006
  18.8051122  34.8278583  83.2093657  18.2890171  34.0437040  83.0223586
  19.6891071  34.4997300  83.3740177  16.4661849  28.5719599  79.1689470
  16.2686670  28.2634687  80.0532802  17.0761555  29.2981237  79.2987400
  24.4733183  39.0983546  82.3041411  25.2036572  38.8368834  82.8649114
  23.8640129  38.3612268  82.3443479  22.5548481  37.2391409  82.9015862
  21.8281644  37.1047374  82.2932354  22.1395767  37.5468238  83.7072580
  10.3778657  40.9581339  90.6663235  11.2981666  41.1359938  90.8603282
  10.3428240  40.0137384  90.5142934   8.6782882  34.8313569  69.1417463
   7.7714337  34.5346682  69.2180177   8.9558863  34.5343387  68.2751750
   3.3740730  38.8682373  83.3086016   3.5926739  39.7999481  83.3274050
   3.7866503  38.5090348  84.0940820  10.2944947  29.3750459  75.2961705
   9.4845676  29.0297544  75.6716951  10.9829364  29.0658002  75.8849316
  12.2235496  28.4528505  76.9186001  12.7766534  28.8723959  77.5776025
  12.4605582  27.5264254  76.9608957   7.4481666  31.6900504  69.2829443
   8.3100830  32.0155402  69.5425260   7.6332010  30.9032000  68.7702508
  15.6014303  30.5629031  76.4264666  15.0212972  31.2213835  76.0442718
  15.3350235  29.7406375  76.0152083  14.0517869  29.9634088  78.6285986
  14.5517647  30.0750623  77.8200305  14.6953477  29.6595141  79.2686794
   1.3785824  39.7041098  79.4375646   1.3556513  39.8028785  78.4857529
   1.6886461  40.5506248  79.7592812   4.0373202  41.7617253  83.5522261
   4.9916456  41.7301195  83.4852192   3.8385726  41.3007876  84.3672487
   4.6272584  40.3318369  86.1193058   5.4465473  40.8262447  86.1427896
   4.9009392  39.4150337  86.0910626  14.3839181  32.7229121  75.4821014
  13.4965036  33.0078772  75.2641209  14.7993170  32.5622884  74.6348291
  17.7353717  32.7475642  79.1975353  18.5114107  33.2372094  79.4699970
  17.0101851  33.1733696  79.6547223  20.1726275  33.4603261  80.2549294
  20.7670766  33.2198997  79.5442602  20.2452859  32.7410392  80.8822830
   2.3923431  47.3036872  80.5692459   2.2577899  46.5437273  80.0030457
   1.9755493  48.0277772  80.1021248  13.5282394  42.4873796  69.5769034
  14.2318244  42.6923798  70.1926690  12.8045043  43.0550558  69.8418117
  14.3580204  38.2383657  75.6971304  14.3015406  38.6952208  74.8578936
  14.9108547  37.4774341  75.5194147  18.1685010  34.0273389  76.5221424
  17.9121945  33.6270024  77.3529631  17.5437878  34.7417183  76.3971563
  22.4797348  36.7669462  79.0292715  21.9196906  36.8362651  79.8024277
  21.8740852  36.5910447  78.3092211   5.5492557  48.2006189  80.7810901
   5.4324941  49.1451622  80.6789592   4.7285003  47.8979751  81.1696700
  15.4369092  42.9256325  71.6267494  16.2714696  42.4937523  71.4444969
  15.2753434  42.7538339  72.5544388  15.0914984  39.4288438  72.9923833
  15.0363788  39.2632710  72.0512277  14.4661039  40.1364471  73.1486023
  12.4060891  41.7337350  92.3177396  13.2752051  41.9078002  91.9564031
  11.9267642  42.5531767  92.1953125   8.4011109  28.9296547  72.5709152
   8.3889779  29.8738387  72.7277423   9.2934531  28.7466693  72.2768613
   6.5747071  48.8534451  83.9966830   7.4774318  48.8858061  84.3133325
   6.3484441  47.9234902  84.0113165   8.3300673  47.6065438  80.6576908
   7.3796304  47.6067299  80.5441281   8.6333159  46.8598172  80.1412943
  12.2163229  25.5239324  76.8255088  11.4495624  24.9697810  76.9711771
  12.6273934  25.5961193  77.6869240  24.0653367  53.4425976  81.7222671
  24.7031777  53.3232723  81.0186011  23.9474210  54.3906820  81.7810623
  20.8743073  53.3953404  81.6584195  20.5361584  53.2794469  80.7704730
  21.7432841  52.9944569  81.6385202  16.7329889  55.2488880  77.6481086
  16.1694754  55.1578817  76.8797374  16.6182284  54.4288785  78.1283579
  21.3562856  54.5488256  87.6170401  21.3451497  54.1541054  86.7450905
  21.5183495  53.8154328  88.2104172  14.2794321  56.7440072  80.4865307
  15.0715612  56.4030897  80.0711606  14.5190971  56.8535047  81.4067460
  22.3129447  58.9159848  72.9595551  21.6617427  59.5013929  72.5729565
  23.1073810  59.4466043  73.0190589  16.2385075  56.0048985  73.3582686
  17.0115951  55.4577972  73.2195561  16.5910473  56.8693235  73.5697147
  18.0770117  57.3325368  86.5649585  17.7859983  58.2370998  86.4496251
  18.7127101  57.3741895  87.2793654  19.0026324  54.7102216  83.1550945
  19.5989896  54.4858238  82.4407908  19.0601295  53.9686962  83.7576392
  18.5751352  52.1641651  70.9901136  18.8276873  51.6423173  70.2284599
  17.6375911  52.0007797  71.0927819  23.6194635  51.1677430  78.7975879
  24.4057724  50.7496853  78.4466296  23.8833339  52.0723522  78.9657527
  23.7904713  56.6050280  73.4964536  23.1550545  56.6784907  74.2085440
  23.4602119  57.1943879  72.8183615  29.0203062  51.1052663  79.7008857
  29.7528234  50.5351880  79.9346687  28.2642418  50.7174263  80.1415363
  18.2947641  54.0669757  73.1925510  18.1783899  53.3914661  73.8606595
  18.4049901  53.5802131  72.3757664  20.6379182  53.5279904  76.8972200
  20.2737389  53.0010525  77.6085121  21.4946298  53.1378374  76.7238685
  26.5428483  44.8174237  84.1603466  26.2111807  45.6869648  83.9364681
  25.9474096  44.5010521  84.8397496  20.2784669  48.5569804  71.8933548
  20.4459071  49.4250041  72.2604019  20.0881838  48.7197086  70.9694837
  23.0360002  57.0186783  83.5599379  22.7360725  57.9211822  83.4515186
  22.6911062  56.7518966  84.4120531  16.4872484  53.4700580  79.5936083
  15.5622980  53.3376794  79.8013775  16.7356897  54.2494799  80.0906025
  26.4357146  49.5369323  81.2396816  25.5274023  49.4684732  80.9455577
  26.3844742  50.0141268  82.0678641  20.2573890  51.0127462  72.8780215
  20.1373515  51.4584512  73.7165695  19.5626478  51.3612779  72.3193753
  13.8481295  53.1133853  80.4279872  13.9773676  53.3668332  81.3419284
  13.1678746  53.7061561  80.1084527  18.0180782  63.7831103  76.5270346
  17.9404812  64.7338929  76.6058827  17.4142426  63.4376976  77.1845273
  20.5098012  50.9558969  89.1831713  19.7331346  51.5152889  89.1734578
  21.1488575  51.4415752  89.7046583  28.3018792  47.7385762  83.0174690
  27.6593173  48.0318295  82.3714484  27.7973721  47.6238682  83.8227887
  25.9558956  51.4848935  73.7060549  26.8676812  51.7176322  73.5308247
  25.4468603  52.0685979  73.1435628  18.7644384  53.7644422  88.7449680
  19.5059068  54.3029466  88.4684504  18.0581370  54.3910711  88.9021232
  24.2399724  55.9073563  87.3421842  24.6483080  55.4655973  86.5976474
  23.5176985  55.3326190  87.5956035  20.5930794  50.8446169  84.7155399
  21.4391989  51.2685583  84.8590048  20.5329431  50.1879794  85.4093962
  24.5628538  56.4674753  81.0974131  23.9337401  56.6320467  80.3950198
  24.1754200  56.8816363  81.8685095  28.4417770  57.4029191  78.4518494
  27.7568808  57.7828093  77.9015528  28.5261620  58.0124518  79.1850442
  23.7430239  48.5050538  86.3736572  23.4991171  49.2592598  85.8370848
  24.0190170  48.8835885  87.2083819  25.6968702  55.0489150  85.0513838
  25.9085597  55.6920910  84.3748219  25.6498450  54.2151467  84.5835768
  23.2994931  47.6606971  81.9550410  22.4379410  47.9588224  82.2467148
  23.3257365  47.8777370  81.0231443  20.1156500  56.2049161  78.3624216
  20.5794846  56.4836864  77.5728838  19.8513298  55.3032606  78.1797306
  17.0080581  55.7520643  81.3003979  17.5781938  56.1807911  80.6621463
  17.5988693  55.4703228  81.9988165  19.0525386  52.3272314  75.1713781
  19.7549430  52.7793357  75.6387707  18.7206015  51.6856133  75.7993674
  17.5005748  50.9184070  89.5464990  16.8704408  51.6000351  89.7800387
  17.3941836  50.8067152  88.6018128  12.7950720  50.5855866  80.4730914
  12.0049774  50.8413395  79.9971025  13.2861968  51.4004204  80.5782955
  26.8114530  57.9261106  83.2236195  27.6331974  57.5241293  82.9418877
  26.8076933  57.8229340  84.1752311  14.7465466  50.9500446  77.4314391
  13.9496629  51.0619140  77.9497887  14.5191058  51.2887098  76.5655282
  20.5771133  57.4745149  85.3796906  20.6415566  57.9365556  86.2155078
  19.8682057  56.8442514  85.5079216  11.0788423  50.8386357  82.9045905
  11.3296462  51.7233367  83.1703481  11.6147972  50.6590958  82.1320997
  34.9020523  54.2699854  79.5721167  34.1484231  53.7007252  79.4165171
  35.0368064  54.2362519  80.5191801  20.2919151  59.1413256  75.2475886
  20.1564826  59.9864792  75.6760734  20.8328963  59.3432534  74.4841820
  16.7786491  45.2204836  91.9090241  16.3853436  44.6671035  92.5837885
  17.5952631  45.5315415  92.2996759  13.7448548  56.6588694  75.8203811
  14.2573069  57.4531945  75.9709376  14.3971261  55.9614985  75.7537413
  15.5543433  59.7754451  77.9026564  15.7310061  60.6972415  77.7147548
  16.3500266  59.4612870  78.3320944  19.6954452  46.6362715  89.5010498
  20.4364165  47.2369868  89.4214960  19.9272374  45.8940353  88.9428540
  14.8395790  51.8219083  87.7788728  14.7249305  50.9204340  88.0795826
  13.9840307  52.0682779  87.4273544  21.9187627  59.7636823  89.3776228
  21.4751481  58.9773201  89.0597133  22.5804841  59.9515973  88.7120119
  16.6774748  61.2932624  83.9036907  17.2282174  61.1649688  83.1313901
  15.8386224  61.5927514  83.5531799  24.0168865  60.0439623  87.4057629
  23.9987341  60.8648504  86.9137899  24.9388785  59.9193698  87.6307771
  20.4741919  57.5583752  88.2481138  21.0070256  56.7972040  88.0180446
  19.9456001  57.2657404  88.9905292  23.6411614  42.6643818  83.7774779
  23.2975884  43.5545460  83.7013890  24.0090577  42.4745476  82.9144365
  11.7097465  54.9877349  76.5963382  12.5472687  55.3974357  76.3797089
  11.8875733  54.0476791  76.5663576  23.6061897  52.6552429  72.2847215
  23.0908521  53.4257034  72.5235602  23.3339206  51.9817566  72.9080276
  21.1909008  47.5002130  77.3432453  20.3350605  47.1108981  77.1638092
  21.6035960  47.5794091  76.4832239  22.7208155  45.0348473  81.7424013
  22.2172950  44.9978609  80.9291818  23.0138762  45.9441216  81.8020669
  18.9651041  45.1187203  80.7490194  19.8304037  44.9230012  80.3896084
  19.0328550  44.8897555  81.6759551  28.5796171  55.4084784  74.2200388
  27.8025614  55.0695944  73.7755550  29.2587652  55.4137407  73.5455353
  23.3948200  50.5279521  74.1106996  23.0898336  50.8425671  74.9617139
  24.3478642  50.6060941  74.1534329  21.8394632  56.6869745  75.7599950
  21.3115994  55.9522504  75.4473187  21.3382135  57.4644421  75.5139918
  26.8187478  54.8818765  80.8766996  26.1611153  55.5718027  80.9647125
  27.6227877  55.2715197  81.2200982  16.5713360  47.3489411  78.1206561
  17.1457112  47.1264593  77.3879754  17.1584342  47.4178106  78.8735163
  25.6292937  53.2363138  78.9270938  26.1424819  53.8693130  79.4292648
  26.2794161  52.6364333  78.5614298  16.8982947  49.3793872  72.1402447
  16.0620259  49.7168559  72.4611721  16.7587717  49.2442852  71.2029584
  18.8736028  44.2230660  76.8481631  18.2200440  43.9079677  76.2238245
  18.8316502  43.6006400  77.5741454  19.9847232  54.5049955  68.7634923
  19.0774294  54.2739208  68.9626072  20.4818264  53.7087574  68.9508904
  22.8915311  63.2147462  71.6831609  22.2177010  63.5179159  72.2916567
  23.2781133  64.0176543  71.3337066  22.1073768  50.7112594  81.1729278
  21.1896329  50.9327541  81.0150966  22.5233911  50.7858904  80.3140986
  22.8908816  52.1104009  76.3031959  23.6380635  52.6225406  75.9939081
  23.1600405  51.7888062  77.1636352  21.1635466  54.6062550  73.2858913
  20.2546685  54.3221583  73.3831383  21.1930550  55.0261628  72.4262220
  26.3954733  58.2169139  77.0550080  25.9417060  57.3760049  77.1115271
  25.7648700  58.8530538  77.3924861  25.3387653  49.1461125  78.2850748
  24.6010410  48.6338512  78.6160990  25.5914426  48.7061507  77.4734025
  24.8387672  60.0545636  77.9899899  25.1310647  60.6150693  77.2712264
  25.3486293  60.3474197  78.7453058  25.4399280  41.9237377  78.8792517
  25.7458157  41.0634741  78.5918432  26.1651885  42.5154998  78.6791511
  11.7323636  52.3268064  77.2674115  11.5348036  51.7337425  76.5425182
  11.1770300  52.0220274  77.9850054  19.7120360  52.2191171  79.3868708
  19.7668970  51.2665007  79.3111185  18.9011562  52.3750610  79.8710007
  20.8611554  56.1471294  70.6246991  20.4230984  55.4307153  70.1652629
  21.6021994  56.3747408  70.0632083  17.6512720  50.8368230  77.1459087
  16.8380585  51.1362401  77.5524279  18.1471714  50.4423919  77.8633569
  19.8021298  60.8325987  79.0793352  19.7597476  61.0586833  78.1501884
  20.7183997  60.5989362  79.2279153  23.2486931  51.3010055  85.9773981
  23.6036319  51.5281528  86.8368447  23.8959063  51.6328432  85.3551236
  28.9784668  54.4228491  76.6823310  28.8402567  54.6130087  75.7544499
  28.6220887  55.1847873  77.1391361  17.1426795  48.4086586  82.7620322
  17.7826174  48.2675345  82.0643285  16.3104325  48.1221099  82.3858924
  29.0054048  56.4905018  81.6934582  29.4390555  56.3980307  82.5417636
  29.7185629  56.4662518  81.0554598  17.9187098  57.7089016  78.8755315
  18.7127697  57.2139336  78.6737889  17.2078791  57.1806879  78.5123020
  22.7381943  60.0907112  83.2267682  22.7918965  60.6598048  83.9945398
  21.8696724  60.2608997  82.8621719  14.2269862  51.8532098  74.9515067
  13.2967450  51.7916553  75.1685029  14.3227334  51.3308051  74.1551708
  14.1455411  48.3786911  77.5393309  14.4062228  49.2932244  77.4302469
  14.9672583  47.9111353  77.6889922  15.6180336  49.7924668  84.7092133
  16.2903390  49.5842030  84.0604782  14.7910123  49.5946754  84.2697366
  29.8669598  56.5328718  84.2267467  30.0605488  57.4374529  84.4726742
  29.7670216  56.0736137  85.0606052  21.5205908  46.4186609  86.7257794
  20.8733823  47.1176559  86.6322271  22.2906924  46.8522753  87.0934042
  24.9284706  56.6835461  89.8008348  24.7770213  56.4546013  88.8838431
  24.9189386  57.6406062  89.8139693  21.6970043  54.2567374  84.7854614
  22.6262103  54.4078533  84.6123581  21.2761073  54.3451395  83.9303261
  20.4958374  58.2818038  82.5553152  20.3569460  57.9136823  83.4279090
  19.7072971  58.7965678  82.3837109  21.0906526  63.3827135  73.8978688
  21.2658282  62.9115178  74.7124311  20.4039314  64.0092901  74.1259949
  22.0463590  57.6599641  79.9441989  21.7113422  57.6200411  80.8399639
  21.5467535  56.9944357  79.4712400  16.0207834  53.0667271  85.4694571
  15.8827631  52.3347510  86.0706110  16.9312757  52.9776171  85.1878758
  24.9822781  55.0055675  70.2179049  24.3651952  54.2802503  70.1212102
  24.5139270  55.7665036  69.8746123  18.6490134  52.7787230  84.9578250
  19.3589753  52.1380422  84.9164869  18.6059442  53.0300125  85.8804431
  26.6376913  59.7154584  87.8784829  26.5789459  59.0313804  87.2115412
  27.0396431  60.4573574  87.4265455  17.3619068  49.7652448  86.7773890
  16.8256425  49.3143187  87.4295486  16.7735777  49.8998357  86.0344354
  15.6567612  66.5316497  80.6718548  15.8964210  67.1635022  81.3497567
  14.8136808  66.1804537  80.9583908  16.7721327  49.2241100  69.3400353
  15.8950793  49.1029900  68.9762600  17.2479080  48.4327178  69.0879242
  26.6394320  57.6794168  86.1098809  25.7521099  57.3420089  86.2325208
  27.2092871  56.9477199  86.3467574   8.2923467  54.0118259  79.4341860
   8.9794507  53.6979989  78.8462876   8.1371596  54.9159624  79.1609112
  13.0958189  48.9008456  83.8626884  13.0116378  48.2934125  83.1277294
  12.2740896  49.3917474  83.8636381  20.1695474  62.3395620  83.0760052
  20.0965645  63.1450591  83.5879357  19.7272867  62.5387586  82.2508074
  19.9585253  61.5767390  76.5862874  19.1752775  62.1189070  76.6801098
  20.6577998  62.0941370  76.9857115  23.2681903  47.3862019  79.2297079
  23.7650603  46.6331982  78.9098149  22.4968885  47.4226336  78.6640289
  31.1211661  53.0902385  80.8715371  31.1101537  53.9727100  80.5009304
  30.2529040  52.7373936  80.6769908  22.6294157  62.2382454  85.2318211
  23.3422129  62.8729919  85.1594112  22.1384186  62.3346320  84.4158213
  24.3511684  56.1433707  76.8035503  23.4167963  56.2635169  76.6340207
  24.5288352  55.2406173  76.5395512  19.8516872  49.5279402  78.9568764
  19.4814660  48.9750443  79.6449669  20.3475964  48.9237536  78.4043764
  27.7384235  51.9851026  77.3385537  28.2044688  52.8179017  77.2645839
  28.1891736  51.5196007  78.0430795  17.6806071  59.9876897  86.0523782
  18.3815530  60.6213380  86.2053176  17.2101186  60.3291629  85.2919421
  25.8060466  58.3294847  74.3371689  26.0820310  58.2151442  75.2465563
  24.9364965  57.9312332  74.2983862  25.7100898  44.3531613  81.3776438
  24.7963978  44.5835840  81.5458645  26.1394000  44.4370057  82.2290470
  25.4807357  52.5421505  83.8776332  24.8278807  52.7897412  83.2228785
  25.8587736  51.7285643  83.5438809  22.4414530  62.5781198  77.9804502
  22.6236925  61.7602854  78.4432255  23.2647516  62.7948890  77.5429392
  22.7756696  61.5049383  75.2419551  23.3044462  60.9941838  74.6289713
  23.0384916  61.1891913  76.1065084  21.5294930  53.2841316  90.3642369
  20.8535567  53.1835445  91.0344744  22.3522563  53.1280530  90.8278366
  13.2773789  59.5213252  82.9854884  13.8627225  58.7756940  83.1182789
  13.0798627  59.8317209  83.8691548  16.1312444  62.5564500  78.0017327
  15.4622819  63.0410627  77.5181367  15.9925314  62.8033720  78.9160705
   7.8691443  52.0918853  81.7059328   7.9075543  51.5582443  82.4996446
   7.3631736  51.5654058  81.0870305  20.2717712  64.5908243  84.5999985
  20.8236020  64.7539865  85.3649070  20.6123906  65.1812681  83.9280010
  15.2482206  46.9383393  85.2021870  15.3123532  47.7998224  84.7899268
  15.1849326  46.3257395  84.4694228  14.7234478  49.0106526  88.8494904
  15.3506517  48.6283603  89.4632428  13.8662397  48.7920728  89.2150597
  25.1228587  59.4169501  90.4548640  25.6668491  60.0299459  89.9603594
  24.5415432  59.9749079  90.9715653  11.5000021  50.8182955  74.7813259
  11.7953462  49.9093633  74.7280313  10.5988057  50.7970694  74.4594261
  23.4086100  62.5390219  81.5863667  23.2837239  61.7379959  81.0774613
  24.0665191  63.0336412  81.0977637  15.0294268  48.8938951  80.7640808
  14.3080854  49.5074919  80.6248281  15.8187524  49.4296716  80.6857454
  25.4721008  60.3399239  83.2143217  24.5251344  60.2204590  83.1421544
  25.8203781  59.4521737  83.2969479  17.8320581  46.2293378  87.0381459
  18.3554983  46.4755674  87.8007769  17.6132915  47.0613413  86.6184597
  13.2287863  48.4997052  74.9052584  12.9000569  47.6194431  74.7227690
  13.5827233  48.4444721  75.7928973  22.4767441  60.1351955  79.4147570
  22.3292404  59.2068663  79.5955140  23.3020935  60.1572046  78.9304645
  16.3429686  48.7870022  75.2728062  16.6825758  49.3155943  74.5506670
  16.7901806  49.1250428  76.0486628  26.0801563  60.9580514  80.5012442
  27.0048111  60.7523375  80.3636894  25.9116867  60.7096915  81.4101784
  19.0373127  47.1707073  84.7231130  18.6969947  46.3714886  85.1251810
  18.3312133  47.4708784  84.1507963  19.6889598  44.2556385  83.1758453
  20.5115668  43.7816864  83.0537343  19.9327662  45.0346869  83.6757139
  18.3297833  47.2844644  73.4721355  19.0506195  47.6625897  72.9685071
  17.7063137  48.0033521  73.5756333  22.4728956  47.9889793  74.4079687
  22.6892570  48.8714431  74.1068515  21.9923023  47.5976006  73.6785329
  17.2128177  50.9475506  80.9850432  17.0672758  51.2615809  81.8774713
  16.7353381  51.5660406  80.4321330  19.0724560  47.9378054  81.0331321
  19.0586129  47.0419147  80.6963619  19.7896988  47.9448718  81.6669607
  20.9250691  48.3715394  83.0784448  20.6668469  49.2932465  83.0768779
  20.3935731  47.9745829  83.7684913  25.8696879  61.4766181  75.8574534
  26.0433757  60.9112604  75.1048386  26.3625771  62.2767076  75.6754024
  11.6873839  53.4880850  83.9238093  11.1427307  54.2640658  84.0558367
  12.5653189  53.8351655  83.7657214  18.4761456  46.8192434  76.3018891
  18.5977367  45.8909080  76.5009779  18.1863498  46.8331120  75.3897207
  21.3452646  44.5047345  79.4385611  21.3674343  44.5686678  78.4837591
  21.7620705  43.6651853  79.6326117  31.7236271  54.2402604  77.4764834
  32.1667417  53.4909929  77.0783957  30.8462781  54.2312741  77.0938566
  26.8572052  60.7932946  72.9571432  27.5522957  61.4139638  73.1758747
  27.1995202  59.9428297  73.2323810  12.4739861  52.6150747  86.8168250
  11.7321597  52.7633382  87.4032880  12.1532605  52.8759012  85.9534999
  28.7563475  58.2432651  74.4858763  29.2814799  58.5819924  73.7608083
  28.6685828  57.3079667  74.3021898  20.4183524  62.1566725  86.6148640
  20.7270650  61.9115872  87.4871339  21.2159006  62.3613363  86.1267510
  20.4404136  64.3104635  78.8454016  20.0009126  63.8181013  79.5386873
  21.1912253  63.7677602  78.6046091  12.9196475  60.5016175  78.8478644
  13.7454495  60.2019947  78.4677288  12.5690527  59.7323798  79.2968433
  17.8878008  59.8542644  80.9176318  17.2658017  59.1913349  80.6178546
  18.5582875  59.8803776  80.2349966  11.1205080  58.4202502  79.8067578
  10.2836988  57.9924676  79.6251579  11.0928725  58.6134945  80.7438369
  17.9602535  48.3324432  90.5108824  18.0090691  49.2086554  90.1286593
  18.5025050  47.7901825  89.9380467  28.4457381  58.8765555  89.7909961
  27.6552925  58.8589694  89.2514460  28.2090736  59.4153849  90.5458997
  28.5655256  55.7258021  87.1042689  28.6153261  55.5608029  88.0458212
  28.4569180  54.8585280  86.7140570  17.4491515  58.4046567  74.3934778
  17.5979635  59.0882031  73.7401451  18.2557958  58.3851657  74.9084234
  25.8559019  51.7088949  88.4201996  26.7568881  51.5695414  88.1285994
  25.9306993  51.8743404  89.3600174  20.1901824  49.0855804  87.2655182
  19.3205133  49.3789370  86.9937771  20.4261304  49.6696249  87.9862446
  30.0673453  58.1454963  87.3484711  29.7758261  58.5084943  88.1848172
  29.4545584  57.4321971  87.1698043  31.2669135  55.7107843  79.8687281
  32.1016027  56.1497647  80.0324842  31.4028264  55.2346496  79.0495527
  28.3160641  53.2687577  85.8164769  28.7914763  53.4615224  85.0083620
  27.3926207  53.3246763  85.5708153  15.2044148  54.4311745  75.3995847
  14.9590190  53.5274075  75.5976057  15.3740062  54.4328895  74.4575325
  22.8940858  45.3035421  84.7820603  23.4122802  46.0396448  84.4567091
  22.5395991  45.6099414  85.6167362  14.4739795  50.1640102  72.8982009
  13.7809040  50.2384457  72.2422045  14.2291547  49.4000446  73.4203526
  23.1453452  41.7235704  80.3021499  23.4255206  41.0558893  80.9281926
  23.9304059  41.9164799  79.7896163  20.9486920  60.8994697  71.8646526
  20.3760888  61.5184885  71.4116998  21.5219714  61.4494059  72.3986448
  27.0162310  50.1453338  84.0493075  27.9679733  50.2451435  84.0705299
  26.8465761  49.3531606  84.5591159  25.0376690  47.2308921  84.2352475
  24.4426622  47.5113933  83.5398964  24.7526386  47.7202822  85.0069217
  24.1684180  61.1831848  72.9955108  25.1014853  61.1177409  73.1987984
  24.0807393  62.0188114  72.5369641  26.7972197  60.4997718  69.9559056
  26.7185828  60.1657581  70.8494814  27.6181864  60.9919486  69.9550528
  29.4950388  53.3659457  83.1635374  29.4626708  52.4275458  83.3495058
  30.1051012  53.4443494  82.4301199  21.3333719  52.2355510  69.2062578
  22.2792824  52.1061718  69.2750996  20.9547964  51.4970172  69.6832006
  29.6444877  50.1570501  83.2093657  29.1283925  49.3728957  83.0223586
  30.5284825  49.8289217  83.3740177  27.3055603  43.9011516  79.1689470
  27.1080425  43.5926604  80.0532802  27.9155309  44.6273155  79.2987400
  35.3126938  54.4275464  82.3041411  36.0430326  54.1660752  82.8649114
  34.7033883  53.6904186  82.3443479  33.3942235  52.5683327  82.9015862
  32.6675399  52.4339292  82.2932354  32.9789522  52.8760155  83.7072580
  21.2172411  56.2873256  90.6663235  22.1375421  56.4651855  90.8603282
  21.1821994  55.3429302  90.5142934  19.5176636  50.1605487  69.1417463
  18.6108091  49.8638599  69.2180177  19.7952617  49.8635305  68.2751750
  10.4354576  51.4811850  79.5916510  10.1157361  50.6277158  79.2990884
   9.8888005  51.6960428  80.3474477  14.2134484  54.1974291  83.3086016
  14.4320494  55.1291399  83.3274050  14.6260258  53.8382265  84.0940820
  21.1338702  44.7042376  75.2961705  20.3239430  44.3589461  75.6716951
  21.8223119  44.3949920  75.8849316  23.0629250  43.7820423  76.9186001
  23.6160289  44.2015877  77.5776025  23.2999336  42.8556171  76.9608957
  19.0862349  49.7707497  92.6988765  18.9859076  50.7201854  92.6300856
  18.8683891  49.4425736  91.8264835  18.2875421  47.0192422  69.2829443
  19.1494585  47.3447320  69.5425260  18.4725765  46.2323918  68.7702508
  10.3042836  55.1014761  81.5609631   9.6106308  54.6868714  81.0479586
  11.0515827  55.1435298  80.9643050  26.4408057  45.8920948  76.4264666
  25.8606726  46.5505752  76.0442718  26.1743990  45.0698293  76.0152083
  24.8911624  45.2926006  78.6285986  25.3911402  45.4042540  77.8200305
  25.5347231  44.9887059  79.2686794  18.9493619  53.2004636  91.5153827
  18.4660701  54.0004996  91.7217716  19.0354558  53.2112580  90.5621271
  12.2179579  55.0333015  79.4375646  12.1950267  55.1320703  78.4857529
  12.5280215  55.8798166  79.7592812  14.8766957  57.0909170  83.5522261
  15.8310210  57.0593113  83.4852192  14.6779480  56.6299794  84.3672487
  15.4666339  55.6610286  86.1193058  16.2859228  56.1554365  86.1427896
  15.7403147  54.7442254  86.0910626  25.2232935  48.0521039  75.4821014
  24.3358790  48.3370689  75.2641209  25.6386924  47.8914802  74.6348291
  28.5747471  48.0767560  79.1975353  29.3507861  48.5664012  79.4699970
  27.8495605  48.5025614  79.6547223  31.0120030  48.7895179  80.2549294
  31.6064521  48.5490915  79.5442602  31.0846614  48.0702309  80.8822830
  13.2317186  62.6328790  80.5692459  13.0971654  61.8729191  80.0030457
  12.8149248  63.3569690  80.1021248  24.3676149  57.8165713  69.5769034
  25.0711999  58.0215716  70.1926690  23.6438797  58.3842475  69.8418117
  25.1973959  53.5675575  75.6971304  25.1409160  54.0244126  74.8578936
  25.7502301  52.8066259  75.5194147  29.0078765  49.3565306  76.5221424
  28.7515699  48.9561942  77.3529631  28.3831633  50.0709100  76.3971563
  33.3191103  52.0961380  79.0292715  32.7590661  52.1654569  79.8024277
  32.7134606  51.9202364  78.3092211  16.3886312  63.5298107  80.7810901
  16.2718696  64.4743539  80.6789592  15.5678758  63.2271668  81.1696700
  26.2762846  58.2548242  71.6267494  27.1108450  57.8229441  71.4444969
  26.1147189  58.0830256  72.5544388  25.9308738  54.7580356  72.9923833
  25.8757542  54.5924627  72.0512277  25.3054794  55.4656389  73.1486023
  10.7201253  49.9948420  86.8185255  11.3660117  49.4847374  87.3072481
  10.5118404  50.7317102  87.3928681  23.2454645  57.0629268  92.3177396
  24.1145805  57.2369920  91.9564031  22.7661397  57.8823684  92.1953125
  19.2404864  44.2588465  72.5709152  19.2283534  45.2030305  72.7277423
  20.1328286  44.0758610  72.2768613  17.4140826  64.1826369  83.9966830
  18.3168072  64.2149979  84.3133325  17.1878196  63.2526820  84.0113165
  19.1694428  62.9357355  80.6576908  18.2190059  62.9359217  80.5441281
  19.4726914  62.1890090  80.1412943  23.0556983  40.8531241  76.8255088
  22.2889379  40.2989728  76.9711771  23.4667688  40.9253110  77.6869240
  15.0598744  47.1416037  90.9160270  15.9230206  46.7852842  91.1263594
  14.4864155  46.8029932  91.6035674  34.9047121  68.7717894  81.7222671
  35.5425531  68.6524641  81.0186011  34.7867964  69.7198738  81.7810623
  31.7136827  68.7245322  81.6584195  31.3755339  68.6086386  80.7704730
  32.5826596  68.3236487  81.6385202  27.5723643  70.5780798  77.6481086
  27.0088508  70.4870735  76.8797374  27.4576038  69.7580703  78.1283579
  32.1956610  69.8780173  87.6170401  32.1845251  69.4832972  86.7450905
  32.3577250  69.1446246  88.2104172  25.1188075  72.0731990  80.4865307
  25.9109367  71.7322814  80.0711606  25.3584725  72.1826965  81.4067460
  33.1523202  74.2451766  72.9595551  32.5011182  74.8305846  72.5729565
  33.9467565  74.7757961  73.0190589  27.0778829  71.3340903  73.3582686
  27.8509705  70.7869890  73.2195561  27.4304228  72.1985152  73.5697147
  28.9163872  72.6617285  86.5649585  28.6253738  73.5662916  86.4496251
  29.5520856  72.7033813  87.2793654  29.8420078  70.0394134  83.1550945
  30.4383651  69.8150156  82.4407908  29.8995050  69.2978879  83.7576392
  29.4145107  67.4933569  70.9901136  29.6670628  66.9715090  70.2284599
  28.4769666  67.3299715  71.0927819  34.4588390  66.4969347  78.7975879
  35.2451479  66.0788771  78.4466296  34.7227094  67.4015440  78.9657527
  34.6298467  71.9342198  73.4964536  33.9944300  72.0076824  74.2085440
  34.2995873  72.5235797  72.8183615  39.8596817  66.4344581  79.7008857
  40.5921989  65.8643797  79.9346687  39.1036172  66.0466181  80.1415363
  29.1341396  69.3961675  73.1925510  29.0177654  68.7206578  73.8606595
  29.2443655  68.9094049  72.3757664  31.4772936  68.8571822  76.8972200
  31.1131144  68.3302443  77.6085121  32.3340052  68.4670291  76.7238685
  37.3822237  60.1466155  84.1603466  37.0505562  61.0161566  83.9364681
  36.7867851  59.8302439  84.8397496  31.1178423  63.8861722  71.8933548
  31.2852826  64.7541958  72.2604019  30.9275593  64.0489004  70.9694837
  33.8753757  72.3478701  83.5599379  33.5754480  73.2503740  83.4515186
  33.5304816  72.0810884  84.4120531  27.3266238  68.7992498  79.5936083
  26.4016735  68.6668712  79.8013775  27.5750651  69.5786717  80.0906025
  37.2750900  64.8661241  81.2396816  36.3667778  64.7976649  80.9455577
  37.2238496  65.3433186  82.0678641  31.0967644  66.3419379  72.8780215
  30.9767270  66.7876430  73.7165695  30.4020233  66.6904697  72.3193753
  24.6875049  68.4425771  80.4279872  24.8167430  68.6960250  81.3419284
  24.0072500  69.0353479  80.1084527  28.8574536  79.1123021  76.5270346
  28.7798566  80.0630846  76.6058827  28.2536180  78.7668894  77.1845273
  31.3491766  66.2850887  89.1831713  30.5725100  66.8444807  89.1734578
  31.9882329  66.7707670  89.7046583  39.1412547  63.0677679  83.0174690
  38.4986927  63.3610212  82.3714484  38.6367475  62.9530600  83.8227887
  29.6038139  69.0936340  88.7449680  30.3452823  69.6321384  88.4684504
  28.8975124  69.7202629  88.9021232  35.0793478  71.2365480  87.3421842
  35.4876834  70.7947891  86.5976474  34.3570740  70.6618108  87.5956035
  31.4324548  66.1738087  84.7155399  32.2785743  66.5977501  84.8590048
  31.3723186  65.5171711  85.4093962  35.4022293  71.7966671  81.0974131
  34.7731155  71.9612385  80.3950198  35.0147955  72.2108281  81.8685095
  39.2811525  72.7321109  78.4518494  38.5962563  73.1120010  77.9015528
  39.3655374  73.3416435  79.1850442  34.5823994  63.8342455  86.3736572
  34.3384925  64.5884516  85.8370848  34.8583924  64.2127803  87.2083819
  36.5362456  70.3781068  85.0513838  36.7479352  71.0212828  84.3748219
  36.4892205  69.5443384  84.5835768  34.1388685  62.9898888  81.9550410
  33.2773164  63.2880142  82.2467148  34.1651120  63.2069287  81.0231443
  30.9550255  71.5341079  78.3624216  31.4188600  71.8128782  77.5728838
  30.6907053  70.6324524  78.1797306  27.8474336  71.0812561  81.3003979
  28.4175693  71.5099829  80.6621463  28.4382448  70.7995145  81.9988165
  29.8919141  67.6564231  75.1713781  30.5943184  68.1085275  75.6387707
  29.5599769  67.0148050  75.7993674  28.3399502  66.2475988  89.5464990
  27.7098163  66.9292269  89.7800387  28.2335590  66.1359070  88.6018128
  23.6344475  65.9147784  80.4730914  22.8443529  66.1705313  79.9971025
  24.1255722  66.7296122  80.5782955  37.6508284  73.2553023  83.2236195
  38.4725728  72.8533211  82.9418877  37.6470687  73.1521257  84.1752311
  25.5859220  66.2792363  77.4314391  24.7890383  66.3911058  77.9497887
  25.3584812  66.6179016  76.5655282  31.4164888  72.8037067  85.3796906
  31.4809320  73.2657474  86.2155078  30.7075812  72.1734431  85.5079216
  21.9182178  66.1678275  82.9045905  22.1690216  67.0525284  83.1703481
  22.4541726  65.9882876  82.1320997  45.7414277  69.5991772  79.5721167
  44.9877986  69.0299170  79.4165171  45.8761819  69.5654436  80.5191801
  31.1312905  74.4705174  75.2475886  30.9958580  75.3156710  75.6760734
  31.6722718  74.6724452  74.4841820  27.6180245  60.5496754  91.9090241
  27.2247191  59.9962952  92.5837885  28.4346385  60.8607332  92.2996759
  24.5842303  71.9880612  75.8203811  25.0966823  72.7823862  75.9709376
  25.2365016  71.2906903  75.7537413  26.3937187  75.1046368  77.9026564
  26.5703816  76.0264333  77.7147548  27.1894021  74.7904788  78.3320944
  30.5348206  61.9654633  89.5010498  31.2757919  62.5661786  89.4214960
  30.7666129  61.2232271  88.9428540  25.6789544  67.1511000  87.7788728
  25.5643059  66.2496257  88.0795826  24.8234062  67.3974697  87.4273544
  32.7581382  75.0928741  89.3776228  32.3145236  74.3065119  89.0597133
  33.4198595  75.2807891  88.7120119  27.5168503  76.6224542  83.9036907
  28.0675928  76.4941606  83.1313901  26.6779979  76.9219431  83.5531799
  34.8562620  75.3731540  87.4057629  34.8381095  76.1940422  86.9137899
  35.7782540  75.2485616  87.6307771  31.3135674  72.8875670  88.2481138
  31.8464011  72.1263958  88.0180446  30.7849755  72.5949322  88.9905292
  34.4805369  57.9935736  83.7774779  34.1369638  58.8837378  83.7013890
  34.8484332  57.8037394  82.9144365  22.5491220  70.3169266  76.5963382
  23.3866442  70.7266275  76.3797089  22.7269487  69.3768709  76.5663576
  34.4455652  67.9844347  72.2847215  33.9302275  68.7548952  72.5235602
  34.1732960  67.3109483  72.9080276  32.0302763  62.8294048  77.3432453
  31.1744359  62.4400898  77.1638092  32.4429714  62.9086009  76.4832239
  33.5601909  60.3640391  81.7424013  33.0566705  60.3270526  80.9291818
  33.8532516  61.2733134  81.8020669  29.8044795  60.4479121  80.7490194
  30.6697792  60.2521929  80.3896084  29.8722304  60.2189473  81.6759551
  39.4189926  70.7376702  74.2200388  38.6419369  70.3987861  73.7755550
  40.0981407  70.7429325  73.5455353  34.2341955  65.8571439  74.1106996
  33.9292090  66.1717588  74.9617139  35.1872397  65.9352859  74.1534329
  32.6788387  72.0161662  75.7599950  32.1509748  71.2814422  75.4473187
  32.1775889  72.7936339  75.5139918  37.6581233  70.2110683  80.8766996
  37.0004907  70.9009944  80.9647125  38.4621632  70.6007115  81.2200982
  27.4107114  62.6781329  78.1206561  27.9850866  62.4556510  77.3879754
  27.9978097  62.7470023  78.8735163  36.4686691  68.5655056  78.9270938
  36.9818573  69.1985047  79.4292648  37.1187915  67.9656251  78.5614298
  27.7376701  64.7085790  72.1402447  26.9014014  65.0460476  72.4611721
  27.5981471  64.5734770  71.2029584  29.7129782  59.5522578  76.8481631
  29.0594194  59.2371595  76.2238245  29.6710256  58.9298318  77.5741454
  30.8240987  69.8341873  68.7634923  29.9168049  69.6031126  68.9626072
  31.3212019  69.0379492  68.9508904  33.7309066  78.5439380  71.6831609
  33.0570764  78.8471077  72.2916567  34.1174888  79.3468460  71.3337066
  32.9467522  66.0404511  81.1729278  32.0290084  66.2619458  81.0150966
  33.3627666  66.1150822  80.3140986  33.7302570  67.4395927  76.3031959
  34.4774389  67.9517324  75.9939081  33.9994160  67.1179980  77.1636352
  32.0029220  69.9354468  73.2858913  31.0940440  69.6513500  73.3831383
  32.0324304  70.3553546  72.4262220  37.2348488  73.5461057  77.0550080
  36.7810815  72.7051967  77.1115271  36.6042454  74.1822455  77.3924861
  36.1781407  64.4753043  78.2850748  35.4404164  63.9630429  78.6160990
  36.4308181  64.0353425  77.4734025  35.6781427  75.3837554  77.9899899
  35.9704401  75.9442611  77.2712264  36.1880048  75.6766115  78.7453058
  22.5717391  67.6559982  77.2674115  22.3741790  67.0629342  76.5425182
  22.0164055  67.3512192  77.9850054  30.5514114  67.5483088  79.3868708
  30.6062724  66.5956925  79.3111185  29.7405316  67.7042527  79.8710007
  31.7005308  71.4763211  70.6246991  31.2624738  70.7599070  70.1652629
  32.4415749  71.7039326  70.0632083  28.4906474  66.1660148  77.1459087
  27.6774340  66.4654318  77.5524279  28.9865468  65.7715837  77.8633569
  30.6415052  76.1617905  79.0793352  30.5991231  76.3878751  78.1501884
  31.5577751  75.9281279  79.2279153  34.0880686  66.6301972  85.9773981
  34.4430074  66.8573446  86.8368447  34.7352817  66.9620349  85.3551236
  39.8178423  69.7520408  76.6823310  39.6796321  69.9422004  75.7544499
  39.4614642  70.5139791  77.1391361  27.9820549  63.7378503  82.7620322
  28.6219928  63.5967263  82.0643285  27.1498080  63.4513017  82.3858924
  39.8447802  71.8196935  81.6934582  40.2784309  71.7272224  82.5417636
  40.5579383  71.7954436  81.0554598  28.7580853  73.0380934  78.8755315
  29.5521451  72.5431254  78.6737889  28.0472545  72.5098797  78.5123020
  33.5775697  75.4199029  83.2267682  33.6312720  75.9889966  83.9945398
  32.7090479  75.5900914  82.8621719  25.0663616  67.1824016  74.9515067
  24.1361204  67.1208471  75.1685029  25.1621088  66.6599968  74.1551708
  24.9849165  63.7078828  77.5393309  25.2455983  64.6224162  77.4302469
  25.8066338  63.2403271  77.6889922  26.4574091  65.1216586  84.7092133
  27.1297144  64.9133948  84.0604782  25.6303877  64.9238672  84.2697366
  40.7063352  71.8620636  84.2267467  40.8999242  72.7666446  84.4726742
  40.6063970  71.4028055  85.0606052  32.3599663  61.7478527  86.7257794
  31.7127578  62.4468476  86.6322271  33.1300678  62.1814670  87.0934042
  35.7678461  72.0127379  89.8008348  35.6163967  71.7837930  88.8838431
  35.7583140  72.9697980  89.8139693  32.5363797  69.5859291  84.7854614
  33.4655857  69.7370451  84.6123581  32.1154827  69.6743312  83.9303261
  31.3352129  73.6109956  82.5553152  31.1963215  73.2428740  83.4279090
  30.5466725  74.1257595  82.3837109  31.9300281  78.7119052  73.8978688
  32.1052037  78.2407096  74.7124311  31.2433069  79.3384819  74.1259949
  32.8857344  72.9891559  79.9441989  32.5507177  72.9492329  80.8399639
  32.3861290  72.3236274  79.4712400  26.8601588  68.3959189  85.4694571
  26.7221386  67.6639427  86.0706110  27.7706511  68.3068089  85.1878758
  35.8216536  70.3347593  70.2179049  35.2045706  69.6094421  70.1212102
  35.3533024  71.0956953  69.8746123  29.4883889  68.1079148  84.9578250
  30.1983507  67.4672340  84.9164869  29.4453197  68.3592043  85.8804431
  37.4770667  75.0446501  87.8784829  37.4183214  74.3605721  87.2115412
  37.8790186  75.7865491  87.4265455  28.2012823  65.0944366  86.7773890
  27.6650180  64.6435104  87.4295486  27.6129531  65.2290275  86.0344354
  26.4961366  81.8608415  80.6718548  26.7357964  82.4926939  81.3497567
  25.6530563  81.5096455  80.9583908  27.6115082  64.5533017  69.3400353
  26.7344548  64.4321818  68.9762600  28.0872835  63.7619096  69.0879242
  37.4788075  73.0086085  86.1098809  36.5914853  72.6712007  86.2325208
  38.0486626  72.2769116  86.3467574  19.1317222  69.3410177  79.4341860
  19.8188262  69.0271907  78.8462876  18.9765350  70.2451542  79.1609112
  23.9351944  64.2300373  83.8626884  23.8510133  63.6226043  83.1277294
  23.1134650  64.7209392  83.8636381  31.0089228  77.6687538  83.0760052
  30.9359400  78.4742509  83.5879357  30.5666621  77.8679503  82.2508074
  30.7979008  76.9059308  76.5862874  30.0146530  77.4480988  76.6801098
  31.4971753  77.4233287  76.9857115  34.1075658  62.7153937  79.2297079
  34.6044357  61.9623899  78.9098149  33.3362639  62.7518254  78.6640289
  41.9605415  68.4194303  80.8715371  41.9495291  69.3019018  80.5009304
  41.0922795  68.0665853  80.6769908  33.4687912  77.5674372  85.2318211
  34.1815884  78.2021836  85.1594112  32.9777940  77.6638238  84.4158213
  35.1905438  71.4725624  76.8035503  34.2561717  71.5927087  76.6340207
  35.3682107  70.5698091  76.5395512  30.6910627  64.8571320  78.9568764
  30.3208414  64.3042360  79.6449669  31.1869719  64.2529453  78.4043764
  38.5777990  67.3142944  77.3385537  39.0438442  68.1470935  77.2645839
  39.0285490  66.8487925  78.0430795  28.5199825  75.3168815  86.0523782
  29.2209285  75.9505298  86.2053176  28.0494940  75.6583547  85.2919421
  36.6454221  73.6586765  74.3371689  36.9214065  73.5443359  75.2465563
  35.7758720  73.2604250  74.2983862  36.5494653  59.6823531  81.3776438
  35.6357732  59.9127757  81.5458645  36.9787754  59.7661975  82.2290470
  36.3201111  67.8713422  83.8776332  35.6672561  68.1189330  83.2228785
  36.6981491  67.0577561  83.5438809  33.2808285  77.9073116  77.9804502
  33.4630679  77.0894772  78.4432255  34.1041271  78.1240808  77.5429392
  33.6150450  76.8341301  75.2419551  34.1438217  76.3233755  74.6289713
  33.8778670  76.5183831  76.1065084  32.3688684  68.6133234  90.3642369
  31.6929321  68.5127363  91.0344744  33.1916318  68.4572447  90.8278366
  24.1167543  74.8505170  82.9854884  24.7020980  74.1048858  83.1182789
  23.9192382  75.1609127  83.8691548  26.9706198  77.8856417  78.0017327
  26.3016574  78.3702545  77.5181367  26.8319068  78.1325638  78.9160705
  18.7085198  67.4210770  81.7059328  18.7469297  66.8874361  82.4996446
  18.2025491  66.8945976  81.0870305  31.1111467  79.9200161  84.5999985
  31.6629775  80.0831782  85.3649070  31.4517660  80.5104599  83.9280010
  26.0875960  62.2675311  85.2021870  26.1517287  63.1290142  84.7899268
  26.0243080  61.6549312  84.4694228  25.5628233  64.3398443  88.8494904
  26.1900272  63.9575521  89.4632428  24.7056152  64.1212645  89.2150597
  35.9622341  74.7461419  90.4548640  36.5062245  75.3591377  89.9603594
  35.3809186  75.3040997  90.9715653  22.3393775  66.1474872  74.7813259
  22.6347217  65.2385551  74.7280313  21.4381811  66.1262612  74.4594261
  34.2479854  77.8682137  81.5863667  34.1230994  77.0671876  81.0774613
  34.9058945  78.3628330  81.0977637  25.8688022  64.2230869  80.7640808
  25.1474608  64.8366837  80.6248281  26.6581278  64.7588634  80.6857454
  36.3114763  75.6691157  83.2143217  35.3645098  75.5496508  83.1421544
  36.6597536  74.7813655  83.2969479  28.6714336  61.5585296  87.0381459
  29.1948738  61.8047592  87.8007769  28.4526669  62.3905330  86.6184597
  24.0681617  63.8288970  74.9052584  23.7394323  62.9486349  74.7227690
  24.4220988  63.7736639  75.7928973  33.3161196  75.4643873  79.4147570
  33.1686158  74.5360580  79.5955140  34.1414689  75.4863964  78.9304645
  27.1823440  64.1161940  75.2728062  27.5219513  64.6447861  74.5506670
  27.6295561  64.4542346  76.0486628  36.9195318  76.2872432  80.5012442
  37.8441865  76.0815293  80.3636894  36.7510621  76.0388833  81.4101784
  29.8766881  62.4998991  84.7231130  29.5363701  61.7006804  85.1251810
  29.1705887  62.8000701  84.1507963  30.5283353  59.5848303  83.1758453
  31.3509422  59.1108781  83.0537343  30.7721416  60.3638787  83.6757139
  29.1691587  62.6136561  73.4721355  29.8899950  62.9917814  72.9685071
  28.5456891  63.3325438  73.5756333  33.3122710  63.3181710  74.4079687
  33.5286325  64.2006348  74.1068515  32.8316777  62.9267924  73.6785329
  28.0521932  66.2767424  80.9850432  27.9066512  66.5907727  81.8774713
  27.5747135  66.8952324  80.4321330  29.9118314  63.2669972  81.0331321
  29.8979883  62.3711065  80.6963619  30.6290743  63.2740635  81.6669607
  31.7644445  63.7007312  83.0784448  31.5062223  64.6224383  83.0768779
  31.2329486  63.3037746  83.7684913  36.7090634  76.8058099  75.8574534
  36.8827512  76.2404521  75.1048386  37.2019525  77.6058994  75.6754024
  22.5267594  68.8172768  83.9238093  21.9821062  69.5932576  84.0558367
  23.4046944  69.1643573  83.7657214  29.3155210  62.1484352  76.3018891
  29.4371122  61.2200998  76.5009779  29.0257253  62.1623038  75.3897207
  32.1846401  59.8339262  79.4385611  32.2068098  59.8978595  78.4837591
  32.6014460  58.9943771  79.6326117  42.5630025  69.5694522  77.4764834
  43.0061171  68.8201847  77.0783957  41.6856535  69.5604658  77.0938566
  37.6965806  76.1224863  72.9571432  38.3916711  76.7431556  73.1758747
  38.0388957  75.2720215  73.2323810  23.3133616  67.9442664  86.8168250
  22.5715352  68.0925300  87.4032880  22.9926360  68.2050930  85.9534999
  39.5957230  73.5724569  74.4858763  40.1208554  73.9111842  73.7608083
  39.5079582  72.6371584  74.3021898  31.2577278  77.4858643  86.6148640
  31.5664405  77.2407789  87.4871339  32.0552760  77.6905281  86.1267510
  31.2797890  79.6396552  78.8454016  30.8402881  79.1472931  79.5386873
  32.0306007  79.0969520  78.6046091  23.7590229  75.8308093  78.8478644
  24.5848249  75.5311865  78.4677288  23.4084281  75.0615716  79.2968433
  28.7271762  75.1834561  80.9176318  28.1051772  74.5205266  80.6178546
  29.3976629  75.2095693  80.2349966  21.9598834  73.7494420  79.8067578
  21.1230743  73.3216594  79.6251579  21.9322480  73.9426863  80.7438369
  28.7996290  63.6616349  90.5108824  28.8484445  64.5378472  90.1286593
  29.3418804  63.1193742  89.9380467  39.2851136  74.2057473  89.7909961
  38.4946679  74.1881611  89.2514460  39.0484490  74.7445766  90.5458997
  39.4049011  71.0549939  87.1042689  39.4547016  70.8899946  88.0458212
  39.2962934  70.1877198  86.7140570  28.2885269  73.7338485  74.3934778
  28.4373390  74.4173949  73.7401451  29.0951713  73.7143575  74.9084234
  36.6952773  67.0380867  88.4201996  37.5962636  66.8987332  88.1285994
  36.7700748  67.2035322  89.3600174  31.0295578  64.4147722  87.2655182
  30.1598888  64.7081288  86.9937771  31.2655059  64.9988167  87.9862446
  40.9067208  73.4746880  87.3484711  40.6152016  73.8376861  88.1848172
  40.2939339  72.7613889  87.1698043  42.1062890  71.0399760  79.8687281
  42.9409781  71.4789564  80.0324842  42.2422019  70.5638413  79.0495527
  39.1554396  68.5979495  85.8164769  39.6308517  68.7907141  85.0083620
  38.2319961  68.6538681  85.5708153  26.0437902  69.7603662  75.3995847
  25.7983944  68.8565992  75.5976057  26.2133817  69.7620813  74.4575325
  33.7334612  60.6327339  84.7820603  34.2516556  61.3688366  84.4567091
  33.3789745  60.9391332  85.6167362  25.3133550  65.4932020  72.8982009
  24.6202795  65.5676375  72.2422045  25.0685302  64.7292363  73.4203526
  33.9847206  57.0527621  80.3021499  34.2648960  56.3850810  80.9281926
  34.7697813  57.2456717  79.7896163  31.7880675  76.2286615  71.8646526
  31.2154642  76.8476802  71.4116998  32.3613469  76.7785977  72.3986448
  37.8556065  65.4745255  84.0493075  38.8073488  65.5743353  84.0705299
  37.6859515  64.6823524  84.5591159  35.8770444  62.5600838  84.2352475
  35.2820376  62.8405851  83.5398964  35.5920141  63.0494739  85.0069217
  35.0077935  76.5123765  72.9955108  35.9408608  76.4469327  73.1987984
  34.9201148  77.3480032  72.5369641  37.6365951  75.8289636  69.9559056
  37.5579583  75.4949499  70.8494814  38.4575618  76.3211403  69.9550528
  40.3344143  68.6951375  83.1635374  40.3020463  67.7567376  83.3495058
  40.9444766  68.7735412  82.4301199  40.4838631  65.4862418  83.2093657
  39.9677680  64.7020875  83.0223586  41.3678580  65.1581135  83.3740177
  46.1520692  69.7567382  82.3041411  46.8824081  69.4952670  82.8649114
  45.5427638  69.0196104  82.3443479  44.2335990  67.8975244  82.9015862
  43.5069153  67.7631209  82.2932354  43.8183276  68.2052073  83.7072580
  32.0566166  71.6165174  90.6663235  32.9769175  71.7943773  90.8603282
  32.0215749  70.6721219  90.5142934  30.3570391  65.4897404  69.1417463
  29.4501846  65.1930517  69.2180177  30.6346372  65.1927222  68.2751750
  21.2748331  66.8103768  79.5916510  20.9551115  65.9569076  79.2990884
  20.7281759  67.0252346  80.3474477  25.0528238  69.5266209  83.3086016
  25.2714248  70.4583316  83.3274050  25.4654012  69.1674183  84.0940820
  31.9732456  60.0334294  75.2961705  31.1633185  59.6881379  75.6716951
  32.6616873  59.7241838  75.8849316  33.9023005  59.1112341  76.9186001
  34.4554043  59.5307794  77.5776025  34.1393091  58.1848089  76.9608957
  29.9256104  65.0999414  92.6988765  29.8252831  66.0493771  92.6300856
  29.7077646  64.7717653  91.8264835  29.1269175  62.3484339  69.2829443
  29.9888339  62.6739238  69.5425260  29.3119519  61.5615835  68.7702508
  21.1436591  70.4306679  81.5609631  20.4500062  70.0160632  81.0479586
  21.8909582  70.4727216  80.9643050  35.7305378  60.6217924  78.6285986
  36.2305156  60.7334458  77.8200305  36.3740986  60.3178976  79.2686794
  29.7887374  68.5296553  91.5153827  29.3054456  69.3296913  91.7217716
  29.8748313  68.5404498  90.5621271  23.0573333  70.3624933  79.4375646
  23.0344022  70.4612620  78.4857529  23.3673970  71.2090084  79.7592812
  25.7160711  72.4201088  83.5522261  26.6703965  72.3885030  83.4852192
  25.5173235  71.9591712  84.3672487  26.3060093  70.9902204  86.1193058
  27.1252982  71.4846283  86.1427896  26.5796901  70.0734172  86.0910626
  41.8513784  64.1187096  80.2549294  42.4458275  63.8782832  79.5442602
  41.9240368  63.3994227  80.8822830  24.0710940  77.9620707  80.5692459
  23.9365408  77.2021108  80.0030457  23.6543002  78.6861607  80.1021248
  35.2069903  73.1457631  69.5769034  35.9105753  73.3507633  70.1926690
  34.4832552  73.7134393  69.8418117  36.0367713  68.8967492  75.6971304
  35.9802915  69.3536044  74.8578936  36.5896056  68.1358177  75.5194147
  44.1584857  67.4253297  79.0292715  43.5984415  67.4946487  79.8024277
  43.5528361  67.2494282  78.3092211  27.2280066  78.8590024  80.7810901
  27.1112450  79.8035457  80.6789592  26.4072512  78.5563586  81.1696700
  37.1156601  73.5840160  71.6267494  37.9502204  73.1521359  71.4444969
  36.9540943  73.4122174  72.5544388  36.7702493  70.0872273  72.9923833
  36.7151297  69.9216545  72.0512277  36.1448548  70.7948306  73.1486023
  21.5595008  65.3240338  86.8185255  22.2053871  64.8139292  87.3072481
  21.3512159  66.0609019  87.3928681  34.0848400  72.3921185  92.3177396
  34.9539560  72.5661838  91.9564031  33.6055151  73.2115602  92.1953125
  30.0798618  59.5880382  72.5709152  30.0677288  60.5322222  72.7277423
  30.9722040  59.4050528  72.2768613  28.2534580  79.5118286  83.9966830
  29.1561827  79.5441897  84.3133325  28.0271950  78.5818737  84.0113165
  30.0088182  78.2649273  80.6576908  29.0583813  78.2651134  80.5441281
  30.3120668  77.5182007  80.1412943  25.8992499  62.4707955  90.9160270
  26.7623960  62.1144760  91.1263594  25.3257909  62.1321850  91.6035674
  45.7440876  84.1009811  81.7222671  46.3819286  83.9816559  81.0186011
  45.6261719  85.0490655  81.7810623  42.5530582  84.0537239  81.6584195
  42.2149093  83.9378304  80.7704730  43.4220350  83.6528404  81.6385202
  38.4117398  85.9072716  77.6481086  37.8482263  85.8162653  76.8797374
  38.2969793  85.0872620  78.1283579  43.0350365  85.2072091  87.6170401
  43.0239006  84.8124889  86.7450905  43.1971004  84.4738164  88.2104172
  35.9581830  87.4023907  80.4865307  36.7503121  87.0614732  80.0711606
  36.1978480  87.5118882  81.4067460  43.9916956  89.5743683  72.9595551
  43.3404936  90.1597764  72.5729565  44.7861319  90.1049878  73.0190589
  37.9172583  86.6632821  73.3582686  38.6903459  86.1161808  73.2195561
  38.2697982  87.5277070  73.5697147  39.7557626  87.9909203  86.5649585
  39.4647492  88.8954834  86.4496251  40.3914610  88.0325731  87.2793654
  40.6813833  85.3686051  83.1550945  41.2777405  85.1442074  82.4407908
  40.7388804  84.6270797  83.7576392  40.2538861  82.8225487  70.9901136
  40.5064382  82.3007008  70.2284599  39.3163420  82.6591632  71.0927819
  45.2982144  81.8261265  78.7975879  46.0845233  81.4080688  78.4466296
  45.5620848  82.7307357  78.9657527  45.4692221  87.2634115  73.4964536
  44.8338054  87.3368742  74.2085440  45.1389628  87.8527714  72.8183615
  50.6990571  81.7636498  79.7008857  51.4315743  81.1935715  79.9346687
  49.9429927  81.3758099  80.1415363  39.9735150  84.7253593  73.1925510
  39.8571408  84.0498496  73.8606595  40.0837410  84.2385967  72.3757664
  42.3166691  84.1863740  76.8972200  41.9524898  83.6594361  77.6085121
  43.1733807  83.7962209  76.7238685  48.2215992  75.4758072  84.1603466
  47.8899316  76.3453483  83.9364681  47.6261605  75.1594356  84.8397496
  41.9572178  79.2153640  71.8933548  42.1246580  80.0833876  72.2604019
  41.7669347  79.3780921  70.9694837  44.7147511  87.6770618  83.5599379
  44.4148234  88.5795657  83.4515186  44.3698571  87.4102802  84.4120531
  38.1659993  84.1284415  79.5936083  37.2410489  83.9960629  79.8013775
  38.4144406  84.9078635  80.0906025  48.1144655  80.1953159  81.2396816
  47.2061532  80.1268567  80.9455577  48.0632251  80.6725104  82.0678641
  41.9361399  81.6711297  72.8780215  41.8161024  82.1168348  73.7165695
  41.2413987  82.0196615  72.3193753  35.5268804  83.7717689  80.4279872
  35.6561185  84.0252168  81.3419284  34.8466255  84.3645397  80.1084527
  39.6968291  94.4414939  76.5270346  39.6192321  95.3922764  76.6058827
  39.0929935  94.0960811  77.1845273  42.1885521  81.6142804  89.1831713
  41.4118855  82.1736724  89.1734578  42.8276084  82.0999587  89.7046583
  49.9806301  78.3969597  83.0174690  49.3380682  78.6902130  82.3714484
  49.4761230  78.2822517  83.8227887  47.6346465  82.1432770  73.7060549
  48.5464321  82.3760157  73.5308247  47.1256112  82.7269814  73.1435628
  40.4431893  84.4228258  88.7449680  41.1846577  84.9613302  88.4684504
  39.7368878  85.0494546  88.9021232  45.9187233  86.5657398  87.3421842
  46.3270589  86.1239809  86.5976474  45.1964494  85.9910026  87.5956035
  42.2718303  81.5030005  84.7155399  43.1179498  81.9269418  84.8590048
  42.2116940  80.8463629  85.4093962  46.2416047  87.1258589  81.0974131
  45.6124910  87.2904303  80.3950198  45.8541709  87.5400198  81.8685095
  50.1205279  88.0613027  78.4518494  49.4356317  88.4411928  77.9015528
  50.2049129  88.6708353  79.1850442  45.4217748  79.1634373  86.3736572
  45.1778680  79.9176434  85.8370848  45.6977679  79.5419721  87.2083819
  47.3756211  85.7072986  85.0513838  47.5873106  86.3504745  84.3748219
  47.3285959  84.8735302  84.5835768  44.9782440  78.3190806  81.9550410
  44.1166919  78.6172060  82.2467148  45.0044874  78.5361205  81.0231443
  41.7944009  86.8632997  78.3624216  42.2582355  87.1420700  77.5728838
  41.5300807  85.9616441  78.1797306  38.6868090  86.4104478  81.3003979
  39.2569447  86.8391747  80.6621463  39.2776202  86.1287063  81.9988165
  40.7312895  82.9856149  75.1713781  41.4336939  83.4377193  75.6387707
  40.3993524  82.3439968  75.7993674  39.1793257  81.5767906  89.5464990
  38.5491917  82.2584187  89.7800387  39.0729345  81.4650987  88.6018128
  34.4738229  81.2439702  80.4730914  33.6837283  81.4997230  79.9971025
  34.9649477  82.0588040  80.5782955  48.4902039  88.5844941  83.2236195
  49.3119482  88.1825128  82.9418877  48.4864442  88.4813175  84.1752311
  36.4252975  81.6084281  77.4314391  35.6284138  81.7202975  77.9497887
  36.1978567  81.9470933  76.5655282  42.2558642  88.1328984  85.3796906
  42.3203075  88.5949391  86.2155078  41.5469566  87.5026349  85.5079216
  32.7575932  81.4970192  82.9045905  33.0083971  82.3817202  83.1703481
  33.2935481  81.3174794  82.1320997  56.5808032  84.9283689  79.5721167
  55.8271740  84.3591088  79.4165171  56.7155573  84.8946354  80.5191801
  41.9706660  89.7997092  75.2475886  41.8352335  90.6448627  75.6760734
  42.5116472  90.0016369  74.4841820  38.4573999  75.8788672  91.9090241
  38.0640945  75.3254870  92.5837885  39.2740140  76.1899250  92.2996759
  35.4236057  87.3172530  75.8203811  35.9360578  88.1115780  75.9709376
  36.0758770  86.6198820  75.7537413  37.2330942  90.4338286  77.9026564
  37.4097570  91.3556251  77.7147548  38.0287775  90.1196705  78.3320944
  41.3741960  77.2946551  89.5010498  42.1151674  77.8953704  89.4214960
  41.6059883  76.5524188  88.9428540  36.5183298  82.4802918  87.7788728
  36.4036814  81.5788175  88.0795826  35.6627816  82.7266615  87.4273544
  43.5975136  90.4220658  89.3776228  43.1538990  89.6357037  89.0597133
  44.2592350  90.6099809  88.7120119  38.3562257  91.9516460  83.9036907
  38.9069683  91.8233523  83.1313901  37.5173733  92.2511349  83.5531799
  45.6956374  90.7023458  87.4057629  45.6774850  91.5232339  86.9137899
  46.6176294  90.5777533  87.6307771  42.1529428  88.2167588  88.2481138
  42.6857765  87.4555876  88.0180446  41.6243510  87.9241239  88.9905292
  45.3199123  73.3227654  83.7774779  44.9763393  74.2129295  83.7013890
  45.6878086  73.1329311  82.9144365  33.3884974  85.6461184  76.5963382
  34.2260196  86.0558192  76.3797089  33.5663242  84.7060626  76.5663576
  45.2849406  83.3136265  72.2847215  44.7696030  84.0840869  72.5235602
  45.0126715  82.6401401  72.9080276  42.8696517  78.1585966  77.3432453
  42.0138114  77.7692816  77.1638092  43.2823469  78.2377926  76.4832239
  44.3995664  75.6932309  81.7424013  43.8960459  75.6562444  80.9291818
  44.6926271  76.6025051  81.8020669  40.6438550  75.7771038  80.7490194
  41.5091546  75.5813847  80.3896084  40.7116059  75.5481390  81.6759551
  50.2583680  86.0668619  74.2200388  49.4813123  85.7279779  73.7755550
  50.9375161  86.0721243  73.5455353  45.0735709  81.1863357  74.1106996
  44.7685845  81.5009506  74.9617139  46.0266151  81.2644777  74.1534329
  43.5182141  87.3453580  75.7599950  42.9903503  86.6106340  75.4473187
  43.0169644  88.1228256  75.5139918  48.4974987  85.5402601  80.8766996
  47.8398662  86.2301862  80.9647125  49.3015386  85.9299033  81.2200982
  38.2500869  78.0073246  78.1206561  38.8244621  77.7848428  77.3879754
  38.8371851  78.0761941  78.8735163  47.3080446  83.8946973  78.9270938
  47.8212328  84.5276965  79.4292648  47.9581670  83.2948169  78.5614298
  38.5770456  80.0377707  72.1402447  37.7407768  80.3752394  72.4611721
  38.4375226  79.9026687  71.2029584  40.5523536  74.8814495  76.8481631
  39.8987949  74.5663512  76.2238245  40.5104011  74.2590236  77.5741454
  41.6634741  85.1633790  68.7634923  40.7561803  84.9323044  68.9626072
  42.1605773  84.3671410  68.9508904  44.5702820  93.8731298  71.6831609
  43.8964519  94.1762994  72.2916567  44.9568642  94.6760378  71.3337066
  43.7861277  81.3696429  81.1729278  42.8683838  81.5911376  81.0150966
  44.2021420  81.4442739  80.3140986  44.5696325  82.7687845  76.3031959
  45.3168144  83.2809242  75.9939081  44.8387914  82.4471897  77.1636352
  42.8422975  85.2646385  73.2858913  41.9334194  84.9805418  73.3831383
  42.8718059  85.6845464  72.4262220  48.0742242  88.8752975  77.0550080
  47.6204569  88.0343885  77.1115271  47.4436209  89.5114373  77.3924861
  47.0175162  79.8044961  78.2850748  46.2797919  79.2922347  78.6160990
  47.2701935  79.3645342  77.4734025  46.5175181  90.7129471  77.9899899
  46.8098156  91.2734529  77.2712264  47.0273802  91.0058032  78.7453058
  47.1186789  72.5821213  78.8792517  47.4245666  71.7218576  78.5918432
  47.8439394  73.1738833  78.6791511  33.4111145  82.9851899  77.2674115
  33.2135545  82.3921260  76.5425182  32.8557809  82.6804110  77.9850054
  41.3907869  82.8775006  79.3868708  41.4456479  81.9248842  79.3111185
  40.5799071  83.0334445  79.8710007  42.5399063  86.8055129  70.6246991
  42.1018493  86.0890988  70.1652629  43.2809503  87.0331244  70.0632083
  39.3300229  81.4952066  77.1459087  38.5168094  81.7946236  77.5524279
  39.8259223  81.1007754  77.8633569  41.4808807  91.4909823  79.0793352
  41.4384985  91.7170669  78.1501884  42.3971505  91.2573197  79.2279153
  44.9274440  81.9593890  85.9773981  45.2823828  82.1865363  86.8368447
  45.5746572  82.2912267  85.3551236  50.6572177  85.0812326  76.6823310
  50.5190076  85.2713922  75.7544499  50.3008396  85.8431709  77.1391361
  38.8214304  79.0670421  82.7620322  39.4613683  78.9259180  82.0643285
  37.9891834  78.7804935  82.3858924  50.6841557  87.1488853  81.6934582
  51.1178064  87.0564142  82.5417636  51.3973138  87.1246353  81.0554598
  39.5974607  88.3672852  78.8755315  40.3915206  87.8723172  78.6737889
  38.8866300  87.8390715  78.5123020  44.4169452  90.7490947  83.2267682
  44.4706474  91.3181883  83.9945398  43.5484233  90.9192832  82.8621719
  35.9057371  82.5115933  74.9515067  34.9754959  82.4500389  75.1685029
  36.0014843  81.9891886  74.1551708  35.8242920  79.0370746  77.5393309
  36.0849737  79.9516079  77.4302469  36.6460092  78.5695189  77.6889922
  37.2967845  80.4508503  84.7092133  37.9690899  80.2425865  84.0604782
  36.4697632  80.2530589  84.2697366  51.5457107  87.1912554  84.2267467
  51.7392997  88.0958364  84.4726742  51.4457725  86.7319973  85.0606052
  43.1993417  77.0770444  86.7257794  42.5521332  77.7760394  86.6322271
  43.9694433  77.5106588  87.0934042  46.6072215  87.3419296  89.8008348
  46.4557722  87.1129848  88.8838431  46.5976895  88.2989898  89.8139693
  43.3757552  84.9151209  84.7854614  44.3049612  85.0662369  84.6123581
  42.9548582  85.0035230  83.9303261  42.1745883  88.9401874  82.5553152
  42.0356969  88.5720658  83.4279090  41.3860480  89.4549513  82.3837109
  42.7694035  94.0410970  73.8978688  42.9445791  93.5699013  74.7124311
  42.0826823  94.6676736  74.1259949  43.7251099  88.3183476  79.9441989
  43.3900931  88.2784246  80.8399639  43.2255044  87.6528192  79.4712400
  37.6995343  83.7251106  85.4694571  37.5615140  82.9931345  86.0706110
  38.6100266  83.6360006  85.1878758  46.6610290  85.6639511  70.2179049
  46.0439461  84.9386339  70.1212102  46.1926779  86.4248871  69.8746123
  40.3277643  83.4371066  84.9578250  41.0377262  82.7964258  84.9164869
  40.2846951  83.6883960  85.8804431  48.3164422  90.3738419  87.8784829
  48.2576968  89.6897639  87.2115412  48.7183940  91.1157409  87.4265455
  39.0406577  80.4236283  86.7773890  38.5043934  79.9727022  87.4295486
  38.4523286  80.5582192  86.0344354  37.3355121  97.1900333  80.6718548
  37.5751719  97.8218857  81.3497567  36.4924317  96.8388373  80.9583908
  38.4508836  79.8824935  69.3400353  37.5738302  79.7613736  68.9762600
  38.9266589  79.0911013  69.0879242  48.3181829  88.3378003  86.1098809
  47.4308608  88.0003925  86.2325208  48.8880380  87.6061034  86.3467574
  29.9710976  84.6702095  79.4341860  30.6582016  84.3563825  78.8462876
  29.8159105  85.5743459  79.1609112  34.7745698  79.5592291  83.8626884
  34.6903887  78.9517961  83.1277294  33.9528405  80.0501309  83.8636381
  41.8482983  92.9979455  83.0760052  41.7753154  93.8034427  83.5879357
  41.4060376  93.1971421  82.2508074  41.6372762  92.2351225  76.5862874
  40.8540284  92.7772905  76.6801098  42.3365507  92.7525205  76.9857115
  44.9469412  78.0445855  79.2297079  45.4438112  77.2915817  78.9098149
  44.1756394  78.0810171  78.6640289  52.7999170  83.7486220  80.8715371
  52.7889046  84.6310936  80.5009304  51.9316549  83.3957771  80.6769908
  44.3081666  92.8966289  85.2318211  45.0209638  93.5313754  85.1594112
  43.8171695  92.9930155  84.4158213  46.0299193  86.8017542  76.8035503
  45.0955472  86.9219004  76.6340207  46.2075861  85.8990009  76.5395512
  41.5304381  80.1863238  78.9568764  41.1602169  79.6334278  79.6449669
  42.0263473  79.5821371  78.4043764  49.4171744  82.6434861  77.3385537
  49.8832197  83.4762853  77.2645839  49.8679245  82.1779843  78.0430795
  39.3593580  90.6460733  86.0523782  40.0603039  91.2797216  86.2053176
  38.8888695  90.9875464  85.2919421  47.4847975  88.9878683  74.3371689
  47.7607819  88.8735277  75.2465563  46.6152474  88.5896167  74.2983862
  47.3888407  75.0115448  81.3776438  46.4751487  75.2419675  81.5458645
  47.8181509  75.0953892  82.2290470  47.1594866  83.2005340  83.8776332
  46.5066316  83.4481248  83.2228785  47.5375245  82.3869478  83.5438809
  44.1202039  93.2365033  77.9804502  44.3024434  92.4186689  78.4432255
  44.9435025  93.4532726  77.5429392  44.4544205  92.1633218  75.2419551
  44.9831971  91.6525673  74.6289713  44.7172425  91.8475749  76.1065084
  43.2082439  83.9425151  90.3642369  42.5323076  83.8419281  91.0344744
  44.0310072  83.7864365  90.8278366  34.9561298  90.1797088  82.9854884
  35.5414734  89.4340776  83.1182789  34.7586136  90.4901044  83.8691548
  37.8099953  93.2148335  78.0017327  37.1410328  93.6994463  77.5181367
  37.6712823  93.4617556  78.9160705  29.5478952  82.7502688  81.7059328
  29.5863052  82.2166279  82.4996446  29.0419245  82.2237893  81.0870305
  41.9505221  95.2492079  84.5999985  42.5023529  95.4123700  85.3649070
  42.2911415  95.8396516  83.9280010  36.9269715  77.5967228  85.2021870
  36.9911041  78.4582059  84.7899268  36.8636835  76.9841230  84.4694228
  36.4021987  79.6690361  88.8494904  37.0294026  79.2867438  89.4632428
  35.5449906  79.4504563  89.2150597  46.8016096  90.0753336  90.4548640
  47.3456000  90.6883294  89.9603594  46.2202941  90.6332915  90.9715653
  33.1787530  81.4766790  74.7813259  33.4740971  80.5677469  74.7280313
  32.2775566  81.4554530  74.4594261  45.0873609  93.1974054  81.5863667
  44.9624748  92.3963794  81.0774613  45.7452700  93.6920248  81.0977637
  36.7081777  79.5522787  80.7640808  35.9868363  80.1658754  80.6248281
  37.4975033  80.0880552  80.6857454  47.1508517  90.9983074  83.2143217
  46.2038853  90.8788425  83.1421544  47.4991290  90.1105572  83.2969479
  39.5108090  76.8877213  87.0381459  40.0342492  77.1339510  87.8007769
  39.2920424  77.7197248  86.6184597  34.9075372  79.1580888  74.9052584
  34.5788078  78.2778267  74.7227690  35.2614742  79.1028556  75.7928973
  44.1554950  90.7935791  79.4147570  44.0079913  89.8652498  79.5955140
  44.9808444  90.8155881  78.9304645  38.0217195  79.4453858  75.2728062
  38.3613267  79.9739779  74.5506670  38.4689315  79.7834264  76.0486628
  47.7589072  91.6164349  80.5012442  48.6835620  91.4107211  80.3636894
  47.5904376  91.3680750  81.4101784  40.7160636  77.8290908  84.7231130
  40.3757456  77.0298721  85.1251810  40.0099642  78.1292619  84.1507963
  41.3677107  74.9140221  83.1758453  42.1903177  74.4400699  83.0537343
  41.6115171  75.6930704  83.6757139  40.0085342  77.9428479  73.4721355
  40.7293704  78.3209732  72.9685071  39.3850646  78.6617356  73.5756333
  44.1516465  78.6473628  74.4079687  44.3680079  79.5298266  74.1068515
  43.6710532  78.2559842  73.6785329  38.8915686  81.6059341  80.9850432
  38.7460267  81.9199644  81.8774713  38.4140890  82.2244242  80.4321330
  40.7512069  78.5961889  81.0331321  40.7373638  77.7002983  80.6963619
  41.4684497  78.6032553  81.6669607  42.6038200  79.0299230  83.0784448
  42.3455978  79.9516300  83.0768779  42.0723240  78.6329664  83.7684913
  47.5484388  92.1350017  75.8574534  47.7221266  91.5696439  75.1048386
  48.0413280  92.9350912  75.6754024  33.3661348  84.1464686  83.9238093
  32.8214816  84.9224494  84.0558367  34.2440698  84.4935490  83.7657214
  40.1548965  77.4776270  76.3018891  40.2764876  76.5492916  76.5009779
  39.8651007  77.4914956  75.3897207  43.0240155  75.1631180  79.4385611
  43.0461852  75.2270513  78.4837591  43.4408214  74.3235689  79.6326117
  53.4023780  84.8986440  77.4764834  53.8454926  84.1493765  77.0783957
  52.5250290  84.8896576  77.0938566  48.5359561  91.4516781  72.9571432
  49.2310466  92.0723474  73.1758747  48.8782711  90.6012132  73.2323810
  34.1527370  83.2734582  86.8168250  33.4109106  83.4217217  87.4032880
  33.8320114  83.5342848  85.9534999  50.4350984  88.9016487  74.4858763
  50.9602308  89.2403759  73.7608083  50.3473337  87.9663502  74.3021898
  42.0971033  92.8150560  86.6148640  42.4058159  92.5699707  87.4871339
  42.8946515  93.0197199  86.1267510  42.1191645  94.9688470  78.8454016
  41.6796635  94.4764849  79.5386873  42.8699762  94.4261438  78.6046091
  34.5983984  91.1600011  78.8478644  35.4242004  90.8603783  78.4677288
  34.2478036  90.3907633  79.2968433  39.5665517  90.5126479  80.9176318
  38.9445526  89.8497184  80.6178546  40.2370384  90.5387611  80.2349966
  32.7992589  89.0786337  79.8067578  31.9624497  88.6508512  79.6251579
  32.7716234  89.2718781  80.7438369  39.6390044  78.9908267  90.5108824
  39.6878200  79.8670390  90.1286593  40.1812559  78.4485660  89.9380467
  50.1244890  89.5349390  89.7909961  49.3340434  89.5173529  89.2514460
  49.8878245  90.0737684  90.5458997  50.2442765  86.3841857  87.1042689
  50.2940770  86.2191864  88.0458212  50.1356689  85.5169116  86.7140570
  39.1279024  89.0630402  74.3934778  39.2767144  89.7465867  73.7401451
  39.9345467  89.0435492  74.9084234  47.5346528  82.3672785  88.4201996
  48.4356390  82.2279250  88.1285994  47.6094502  82.5327239  89.3600174
  41.8689333  79.7439639  87.2655182  40.9992642  80.0373205  86.9937771
  42.1048813  80.3280084  87.9862446  51.7460962  88.8038798  87.3484711
  51.4545770  89.1668779  88.1848172  51.1333093  88.0905806  87.1698043
  52.9456644  86.3691678  79.8687281  53.7803536  86.8081482  80.0324842
  53.0815773  85.8930331  79.0495527  49.9948150  83.9271413  85.8164769
  50.4702272  84.1199059  85.0083620  49.0713716  83.9830599  85.5708153
  36.8831657  85.0895580  75.3995847  36.6377699  84.1857910  75.5976057
  37.0527571  85.0912730  74.4575325  44.5728367  75.9619256  84.7820603
  45.0910311  76.6980283  84.4567091  44.2183500  76.2683250  85.6167362
  36.1527304  80.8223938  72.8982009  35.4596549  80.8968293  72.2422045
  35.9079056  80.0584281  73.4203526  44.8240961  72.3819539  80.3021499
  45.1042715  71.7142728  80.9281926  45.6091568  72.5748634  79.7896163
  42.6274429  91.5578533  71.8646526  42.0548396  92.1768720  71.4116998
  43.2007223  92.1077894  72.3986448  48.6949819  80.8037173  84.0493075
  49.6467242  80.9035271  84.0705299  48.5253270  80.0115441  84.5591159
  46.7164199  77.8892756  84.2352475  46.1214131  78.1697769  83.5398964
  46.4313895  78.3786657  85.0069217  45.8471689  91.8415683  72.9955108
  46.7802362  91.7761245  73.1987984  45.7594902  92.6771950  72.5369641
  48.4759706  91.1581553  69.9559056  48.3973337  90.8241417  70.8494814
  49.2969373  91.6503321  69.9550528  51.1737897  84.0243293  83.1635374
  51.1414217  83.0859293  83.3495058  51.7838521  84.1027329  82.4301199
  43.0121228  82.8939346  69.2062578  43.9580333  82.7645554  69.2750996
  42.6335473  82.1554007  69.6832006  51.3232386  80.8154336  83.2093657
  50.8071434  80.0312793  83.0223586  52.2072334  80.4873053  83.3740177
  48.9843112  74.5595352  79.1689470  48.7867934  74.2510440  80.0532802
  49.5942818  75.2856990  79.2987400  56.9914447  85.0859299  82.3041411
  57.7217835  84.8244588  82.8649114  56.3821392  84.3488021  82.3443479
  55.0729744  83.2267162  82.9015862  54.3462908  83.0923127  82.2932354
  54.6577031  83.5343991  83.7072580  42.8959920  86.9457092  90.6663235
  43.8162930  87.1235691  90.8603282  42.8609503  86.0013137  90.5142934
  41.1964145  80.8189322  69.1417463  40.2895600  80.5222435  69.2180177
  41.4740126  80.5219140  68.2751750  32.1142085  82.1395685  79.5916510
  31.7944870  81.2860994  79.2990884  31.5675514  82.3544263  80.3474477
  35.8921993  84.8558126  83.3086016  36.1108003  85.7875234  83.3274050
  36.3047767  84.4966101  84.0940820  42.8126211  75.3626212  75.2961705
  42.0026939  75.0173297  75.6716951  43.5010628  75.0533755  75.8849316
  44.7416759  74.4404258  76.9186001  45.2947798  74.8599712  77.5776025
  44.9786845  73.5140007  76.9608957  40.7649858  80.4291332  92.6988765
  40.6646585  81.3785689  92.6300856  40.5471400  80.1009571  91.8264835
  39.9662930  77.6776257  69.2829443  40.8282094  78.0031155  69.5425260
  40.1513274  76.8907753  68.7702508  31.9830345  85.7598597  81.5609631
  31.2893817  85.3452550  81.0479586  32.7303336  85.8019133  80.9643050
  48.1195566  76.5504784  76.4264666  47.5394235  77.2089588  76.0442718
  47.8531499  75.7282128  76.0152083  46.5699133  75.9509841  78.6285986
  47.0698911  76.0626376  77.8200305  47.2134740  75.6470894  79.2686794
  40.6281128  83.8588471  91.5153827  40.1448210  84.6588831  91.7217716
  40.7142067  83.8696416  90.5621271  33.8967088  85.6916851  79.4375646
  33.8737776  85.7904538  78.4857529  34.2067724  86.5382001  79.7592812
  36.5554466  87.7493006  83.5522261  37.5097719  87.7176948  83.4852192
  36.3566989  87.2883629  84.3672487  37.1453848  86.3194122  86.1193058
  37.9646737  86.8138200  86.1427896  37.4190656  85.4026090  86.0910626
  46.9020444  78.7104874  75.4821014  46.0146299  78.9954525  75.2641209
  47.3174433  78.5498637  74.6348291  50.2534980  78.7351395  79.1975353
  51.0295370  79.2247847  79.4699970  49.5283114  79.1609449  79.6547223
  52.6907539  79.4479014  80.2549294  53.2852030  79.2074750  79.5442602
  52.7634123  78.7286145  80.8822830  34.9104695  93.2912625  80.5692459
  34.7759163  92.5313026  80.0030457  34.4936757  94.0153525  80.1021248
  46.0463658  88.4749549  69.5769034  46.7499508  88.6799551  70.1926690
  45.3226306  89.0426311  69.8418117  46.8761468  84.2259410  75.6971304
  46.8196669  84.6827961  74.8578936  47.4289810  83.4650095  75.5194147
  50.6866274  80.0149142  76.5221424  50.4303208  79.6145777  77.3529631
  50.0619142  80.7292936  76.3971563  54.9978612  82.7545215  79.0292715
  54.4378170  82.8238404  79.8024277  54.3922115  82.5786200  78.3092211
  38.0673820  94.1881942  80.7810901  37.9506205  95.1327375  80.6789592
  37.2466267  93.8855504  81.1696700  47.9550355  88.9132078  71.6267494
  48.7895959  88.4813276  71.4444969  47.7934698  88.7414092  72.5544388
  47.6096247  85.4164191  72.9923833  47.5545051  85.2508463  72.0512277
  46.9842302  86.1240224  73.1486023  32.3988762  80.6532256  86.8185255
  33.0447626  80.1431210  87.3072481  32.1905913  81.3900937  87.3928681
  44.9242154  87.7213103  92.3177396  45.7933314  87.8953755  91.9564031
  44.4448906  88.5407520  92.1953125  40.9192373  74.9172300  72.5709152
  40.9071043  75.8614140  72.7277423  41.8115795  74.7342446  72.2768613
  39.0928335  94.8410204  83.9966830  39.9955581  94.8733814  84.3133325
  38.8665705  93.9110655  84.0113165  40.8481937  93.5941191  80.6576908
  39.8977568  93.5943052  80.5441281  41.1514423  92.8473925  80.1412943
  36.7386253  77.7999873  90.9160270  37.6017715  77.4436677  91.1263594
  36.1651664  77.4613767  91.6035674  56.5834630  99.4301729  81.7222671
  57.2213040  99.3108476  81.0186011  56.4655473 100.3782573  81.7810623
  53.3924336  99.3829157  81.6584195  53.0542848  99.2670222  80.7704730
  54.2614105  98.9820322  81.6385202  49.2511152 101.2364633  77.6481086
  48.6876017 101.1454570  76.8797374  49.1363547 100.4164538  78.1283579
  53.8744119 100.5364009  87.6170401  53.8632760 100.1416807  86.7450905
  54.0364759  99.8030081  88.2104172  46.7975584 102.7315825  80.4865307
  47.5896876 102.3906650  80.0711606  47.0372234 102.8410800  81.4067460
  54.8310711 104.9035601  72.9595551  54.1798691 105.4889682  72.5729565
  55.6255074 105.4341796  73.0190589  48.7566338 101.9924738  73.3582686
  49.5297214 101.4453725  73.2195561  49.1091737 102.8568988  73.5697147
  50.5951381 103.3201121  86.5649585  50.3041247 104.2246751  86.4496251
  51.2308365 103.3617648  87.2793654  51.5207587 100.6977969  83.1550945
  52.1171160 100.4733992  82.4407908  51.5782559  99.9562715  83.7576392
  51.0932616  98.1517404  70.9901136  51.3458136  97.6298926  70.2284599
  50.1557175  97.9883550  71.0927819  56.1375899  97.1553183  78.7975879
  56.9238988  96.7372606  78.4466296  56.4014603  98.0599275  78.9657527
  56.3085976 102.5926033  73.4964536  55.6731809 102.6660660  74.2085440
  55.9783382 103.1819632  72.8183615  61.5384326  97.0928416  79.7008857
  62.2709498  96.5227633  79.9346687  60.7823681  96.7050016  80.1415363
  50.8128905 100.0545510  73.1925510  50.6965163  99.3790414  73.8606595
  50.9231164  99.5677884  72.3757664  53.1560445  99.5155658  76.8972200
  52.7918653  98.9886278  77.6085121  54.0127561  99.1254127  76.7238685
  59.0609746  90.8049990  84.1603466  58.7293071  91.6745401  83.9364681
  58.4655359  90.4886274  84.8397496  52.7965932  94.5445557  71.8933548
  52.9640335  95.4125794  72.2604019  52.6063102  94.7072839  70.9694837
  49.0053747  99.4576333  79.5936083  48.0804244  99.3252547  79.8013775
  49.2538160 100.2370552  80.0906025  58.9538409  95.5245076  81.2396816
  58.0455287  95.4560485  80.9455577  58.9026005  96.0017021  82.0678641
  52.7755153  97.0003215  72.8780215  52.6554779  97.4460265  73.7165695
  52.0807742  97.3488532  72.3193753  46.3662558  99.1009606  80.4279872
  46.4954939  99.3544085  81.3419284  45.6860009  99.6937314  80.1084527
  53.0279275  96.9434722  89.1831713  52.2512609  97.5028642  89.1734578
  53.6669838  97.4291505  89.7046583  60.8200056  93.7261515  83.0174690
  60.1774436  94.0194048  82.3714484  60.3154984  93.6114435  83.8227887
  58.4740219  97.4724688  73.7060549  59.3858076  97.7052075  73.5308247
  57.9649867  98.0561732  73.1435628  51.2825648  99.7520175  88.7449680
  52.0240332 100.2905219  88.4684504  50.5762633 100.3786464  88.9021232
  56.7580987 101.8949316  87.3421842  57.1664343 101.4531726  86.5976474
  56.0358249 101.3201943  87.5956035  53.1112057  96.8321922  84.7155399
  53.9573252  97.2561336  84.8590048  53.0510695  96.1755547  85.4093962
  57.0809802 102.4550506  81.0974131  56.4518664 102.6196220  80.3950198
  56.6935464 102.8692116  81.8685095  60.9599034 103.3904944  78.4518494
  60.2750072 103.7703846  77.9015528  61.0442883 104.0000271  79.1850442
  56.2611503  94.4926291  86.3736572  56.0172434  95.2468351  85.8370848
  56.5371433  94.8711638  87.2083819  58.2149965 101.0364903  85.0513838
  58.4266861 101.6796663  84.3748219  58.1679714 100.2027220  84.5835768
  55.8176194  93.6482724  81.9550410  54.9560673  93.9463977  82.2467148
  55.8438629  93.8653123  81.0231443  52.6337764 102.1924914  78.3624216
  53.0976109 102.4712617  77.5728838  52.3694562 101.2908359  78.1797306
  49.5261845 101.7396396  81.3003979  50.0963202 102.1683664  80.6621463
  50.1169957 101.4578981  81.9988165  51.5706650  98.3148067  75.1713781
  52.2730693  98.7669110  75.6387707  51.2387278  97.6731886  75.7993674
  50.0187011  96.9059823  89.5464990  49.3885672  97.5876104  89.7800387
  49.9123099  96.7942905  88.6018128  45.3131984  96.5731619  80.4730914
  44.5231038  96.8289148  79.9971025  45.8043231  97.3879957  80.5782955
  59.3295793 103.9136859  83.2236195  60.1513237 103.5117046  82.9418877
  59.3258196 103.8105093  84.1752311  47.2646729  96.9376199  77.4314391
  46.4677892  97.0494893  77.9497887  47.0372321  97.2762851  76.5655282
  53.0952397 103.4620902  85.3796906  53.1596829 103.9241309  86.2155078
  52.3863321 102.8318267  85.5079216  43.5969687  96.8262110  82.9045905
  43.8477725  97.7109120  83.1703481  44.1329235  96.6466711  82.1320997
  67.4201786 100.2575607  79.5721167  66.6665495  99.6883005  79.4165171
  67.5549328 100.2238272  80.5191801  52.8100414 105.1289009  75.2475886
  52.6746089 105.9740545  75.6760734  53.3510227 105.3308287  74.4841820
  49.2967754  91.2080589  91.9090241  48.9034700  90.6546788  92.5837885
  50.1133894  91.5191168  92.2996759  46.2629812 102.6464447  75.8203811
  46.7754332 103.4407698  75.9709376  46.9152525 101.9490738  75.7537413
  48.0724696 105.7630204  77.9026564  48.2491325 106.6848168  77.7147548
  48.8681530 105.4488623  78.3320944  52.2135715  92.6238468  89.5010498
  52.9545428  93.2245621  89.4214960  52.4453638  91.8816106  88.9428540
  47.3577053  97.8094836  87.7788728  47.2430568  96.9080093  88.0795826
  46.5021571  98.0558532  87.4273544  49.1956012 107.2808378  83.9036907
  49.7463437 107.1525441  83.1313901  48.3567488 107.5803267  83.5531799
  52.9923183 103.5459505  88.2481138  53.5251520 102.7847794  88.0180446
  52.4637264 103.2533157  88.9905292  56.1592878  88.6519571  83.7774779
  55.8157147  89.5421213  83.7013890  56.5271841  88.4621229  82.9144365
  44.2278729 100.9753102  76.5963382  45.0653951 101.3850110  76.3797089
  44.4056996 100.0352544  76.5663576  56.1243161  98.6428182  72.2847215
  55.6089784  99.4132787  72.5235602  55.8520469  97.9693319  72.9080276
  53.7090272  93.4877883  77.3432453  52.8531868  93.0984734  77.1638092
  54.1217223  93.5669844  76.4832239  55.2389418  91.0224226  81.7424013
  54.7354214  90.9854362  80.9291818  55.5320025  91.9316969  81.8020669
  51.4832304  91.1062956  80.7490194  52.3485301  90.9105765  80.3896084
  51.5509813  90.8773308  81.6759551  61.0977435 101.3960537  74.2200388
  60.3206878 101.0571697  73.7755550  61.7768916 101.4013160  73.5455353
  55.9129464  96.5155274  74.1106996  55.6079599  96.8301424  74.9617139
  56.8659906  96.5936694  74.1534329  54.3575896 102.6745498  75.7599950
  53.8297257 101.9398257  75.4473187  53.8563398 103.4520174  75.5139918
  59.3368742 100.8694518  80.8766996  58.6792416 101.5593780  80.9647125
  60.1409141 101.2590950  81.2200982  49.0894623  93.3365164  78.1206561
  49.6638375  93.1140346  77.3879754  49.6765606  93.4053859  78.8735163
  58.1474200  99.2238891  78.9270938  58.6606082  99.8568883  79.4292648
  58.7975424  98.6240086  78.5614298  49.4164210  95.3669625  72.1402447
  48.5801523  95.7044312  72.4611721  49.2768980  95.2318605  71.2029584
  51.3917291  90.2106413  76.8481631  50.7381703  89.8955430  76.2238245
  51.3497765  89.5882153  77.5741454  52.5028496 100.4925708  68.7634923
  51.5955558 100.2614962  68.9626072  52.9999528  99.6963327  68.9508904
  55.4096575 109.2023215  71.6831609  54.7358273 109.5054912  72.2916567
  55.7962397 110.0052296  71.3337066  54.6255031  96.6988347  81.1729278
  53.7077593  96.9203294  81.0150966  55.0415175  96.7734657  80.3140986
  55.4090079  98.0979762  76.3031959  56.1561898  98.6101159  75.9939081
  55.6781669  97.7763815  77.1636352  53.6816729 100.5938303  73.2858913
  52.7727949 100.3097336  73.3831383  53.7111813 101.0137382  72.4262220
  58.9135997 104.2044892  77.0550080  58.4598324 103.3635802  77.1115271
  58.2829963 104.8406291  77.3924861  57.8568916  95.1336878  78.2850748
  57.1191673  94.6214265  78.6160990  58.1095690  94.6937260  77.4734025
  57.3568936 106.0421389  77.9899899  57.6491910 106.6026446  77.2712264
  57.8667557 106.3349950  78.7453058  57.9580544  87.9113130  78.8792517
  58.2639420  87.0510494  78.5918432  58.6833148  88.5030751  78.6791511
  44.2504900  98.3143817  77.2674115  44.0529299  97.7213178  76.5425182
  43.6951564  98.0096027  77.9850054  52.2301623  98.2066924  79.3868708
  52.2850233  97.2540760  79.3111185  51.4192825  98.3626363  79.8710007
  53.3792817 102.1347047  70.6246991  52.9412247 101.4182906  70.1652629
  54.1203258 102.3623161  70.0632083  50.1693983  96.8243983  77.1459087
  49.3561849  97.1238154  77.5524279  50.6652977  96.4299672  77.8633569
  52.3202561 106.8201740  79.0793352  52.2778740 107.0462587  78.1501884
  53.2365260 106.5865115  79.2279153  55.7668195  97.2885808  85.9773981
  56.1217583  97.5157281  86.8368447  56.4140326  97.6204185  85.3551236
  61.4965932 100.4104244  76.6823310  61.3583830 100.6005840  75.7544499
  61.1402151 101.1723626  77.1391361  49.6608058  94.3962339  82.7620322
  50.3007437  94.2551098  82.0643285  48.8285589  94.1096852  82.3858924
  61.5235311 102.4780771  81.6934582  61.9571818 102.3856060  82.5417636
  62.2366892 102.4538271  81.0554598  50.4368362 103.6964769  78.8755315
  51.2308960 103.2015089  78.6737889  49.7260054 103.1682632  78.5123020
  55.2563206 106.0782865  83.2267682  55.3100229 106.6473801  83.9945398
  54.3877988 106.2484750  82.8621719  46.7451125  97.8407851  74.9515067
  45.8148713  97.7792306  75.1685029  46.8408597  97.3183804  74.1551708
  46.6636674  94.3662664  77.5393309  46.9243492  95.2807997  77.4302469
  47.4853847  93.8987106  77.6889922  48.1361600  95.7800421  84.7092133
  48.8084653  95.5717783  84.0604782  47.3091386  95.5822507  84.2697366
  62.3850861 102.5204471  84.2267467  62.5786751 103.4250282  84.4726742
  62.2851479 102.0611890  85.0606052  54.0387172  92.4062362  86.7257794
  53.3915087  93.1052312  86.6322271  54.8088187  92.8398506  87.0934042
  54.2151306 100.2443127  84.7854614  55.1443366 100.3954286  84.6123581
  53.7942336 100.3327148  83.9303261  53.0139638 104.2693791  82.5553152
  52.8750724 103.9012576  83.4279090  52.2254234 104.7841431  82.3837109
  54.5644853 103.6475394  79.9441989  54.2294686 103.6076164  80.8399639
  54.0648799 102.9820110  79.4712400  48.5389097  99.0543024  85.4694571
  48.4008895  98.3223263  86.0706110  49.4494020  98.9651924  85.1878758
  57.5004045 100.9931428  70.2179049  56.8833215 100.2678256  70.1212102
  57.0320533 101.7540789  69.8746123  51.1671398  98.7662983  84.9578250
  51.8771016  98.1256175  84.9164869  51.1240706  99.0175878  85.8804431
  49.8800332  95.7528201  86.7773890  49.3437689  95.3018940  87.4295486
  49.2917040  95.8874110  86.0344354  49.2902591  95.2116853  69.3400353
  48.4132057  95.0905653  68.9762600  49.7660344  94.4202931  69.0879242
  59.1575584 103.6669921  86.1098809  58.2702362 103.3295842  86.2325208
  59.7274135 102.9352952  86.3467574  40.8104731  99.9994012  79.4341860
  41.4975771  99.6855742  78.8462876  40.6552859 100.9035377  79.1609112
  45.6139453  94.8884209  83.8626884  45.5297642  94.2809878  83.1277294
  44.7922159  95.3793227  83.8636381  52.6876737 108.3271373  83.0760052
  52.6146908 109.1326344  83.5879357  52.2454130 108.5263339  82.2508074
  52.4766517 107.5643143  76.5862874  51.6934039 108.1064823  76.6801098
  53.1759262 108.0817123  76.9857115  55.7863167  93.3737772  79.2297079
  56.2831866  92.6207735  78.9098149  55.0150148  93.4102089  78.6640289
  63.6392924  99.0778138  80.8715371  63.6282800  99.9602853  80.5009304
  62.7710304  98.7249689  80.6769908  55.1475421 108.2258207  85.2318211
  55.8603393 108.8605672  85.1594112  54.6565449 108.3222073  84.4158213
  56.8692947 102.1309460  76.8035503  55.9349226 102.2510922  76.6340207
  57.0469616 101.2281926  76.5395512  52.3698136  95.5155155  78.9568764
  51.9995923  94.9626196  79.6449669  52.8657228  94.9113289  78.4043764
  60.2565499  97.9726779  77.3385537  60.7225951  98.8054770  77.2645839
  60.7072999  97.5071760  78.0430795  50.1987334 105.9752650  86.0523782
  50.8996794 106.6089133  86.2053176  49.7282449 106.3167382  85.2919421
  58.3241730 104.3170600  74.3371689  58.6001574 104.2027195  75.2465563
  57.4546229 103.9188085  74.2983862  58.2282162  90.3407366  81.3776438
  57.3145241  90.5711593  81.5458645  58.6575263  90.4245810  82.2290470
  57.9988620  98.5297258  83.8776332  57.3460070  98.7773165  83.2228785
  58.3769000  97.7161396  83.5438809  54.9595794 108.5656951  77.9804502
  55.1418188 107.7478607  78.4432255  55.7828780 108.7824643  77.5429392
  55.2937959 107.4925136  75.2419551  55.8225726 106.9817591  74.6289713
  55.5566179 107.1767666  76.1065084  54.0476193  99.2717069  90.3642369
  53.3716830  99.1711198  91.0344744  54.8703827  99.1156283  90.8278366
  45.7955052 105.5089005  82.9854884  46.3808489 104.7632693  83.1182789
  45.5979891 105.8192962  83.8691548  40.3872707  98.0794606  81.7059328
  40.4256806  97.5458196  82.4996446  39.8813000  97.5529811  81.0870305
  47.7663469  92.9259146  85.2021870  47.8304796  93.7873977  84.7899268
  47.7030589  92.3133148  84.4694228  47.2415742  94.9982279  88.8494904
  47.8687781  94.6159356  89.4632428  46.3843661  94.7796481  89.2150597
  44.0181284  96.8058708  74.7813259  44.3134726  95.8969386  74.7280313
  43.1169320  96.7846447  74.4594261  55.9267363 108.5265972  81.5863667
  55.8018503 107.7255712  81.0774613  56.5846454 109.0212165  81.0977637
  47.5475531  94.8814704  80.7640808  46.8262117  95.4950672  80.6248281
  48.3368787  95.4172469  80.6857454  57.9902272 106.3274992  83.2143217
  57.0432607 106.2080343  83.1421544  58.3385045 105.4397490  83.2969479
  50.3501845  92.2169131  87.0381459  50.8736247  92.4631427  87.8007769
  50.1314178  93.0489166  86.6184597  45.7469126  94.4872805  74.9052584
  45.4181832  93.6070184  74.7227690  46.1008497  94.4320474  75.7928973
  54.9948705 106.1227708  79.4147570  54.8473667 105.1944416  79.5955140
  55.8202198 106.1447799  78.9304645  48.8610949  94.7745775  75.2728062
  49.2007022  95.3031697  74.5506670  49.3083070  95.1126181  76.0486628
  58.5982827 106.9456267  80.5012442  59.5229374 106.7399128  80.3636894
  58.4298130 106.6972668  81.4101784  51.5554390  93.1582826  84.7231130
  51.2151210  92.3590639  85.1251810  50.8493396  93.4584537  84.1507963
  52.2070862  90.2432138  83.1758453  53.0296931  89.7692617  83.0537343
  52.4508925  91.0222622  83.6757139  50.8479096  93.2720397  73.4721355
  51.5687459  93.6501650  72.9685071  50.2244400  93.9909274  73.5756333
  54.9910219  93.9765546  74.4079687  55.2073834  94.8590184  74.1068515
  54.5104286  93.5851759  73.6785329  49.7309441  96.9351259  80.9850432
  49.5854021  97.2491562  81.8774713  49.2534644  97.5536159  80.4321330
  51.5905823  93.9253807  81.0331321  51.5767392  93.0294900  80.6963619
  52.3078252  93.9324471  81.6669607  53.4431954  94.3591147  83.0784448
  53.1849732  95.2808218  83.0768779  52.9116995  93.9621582  83.7684913
  58.3878143 107.4641934  75.8574534  58.5615020 106.8988357  75.1048386
  58.8807034 108.2642829  75.6754024  44.2055103  99.4756603  83.9238093
  43.6608571 100.2516411  84.0558367  45.0834453  99.8227408  83.7657214
  50.9942719  92.8068187  76.3018891  51.1158631  91.8784833  76.5009779
  50.7044762  92.8206873  75.3897207  53.8633910  90.4923098  79.4385611
  53.8855607  90.5562431  78.4837591  54.2801969  89.6527606  79.6326117
  64.2417534 100.2278357  77.4764834  64.6848680  99.4785683  77.0783957
  63.3644044 100.2188494  77.0938566  59.3753315 106.7808699  72.9571432
  60.0704220 107.4015391  73.1758747  59.7176466 105.9304050  73.2323810
  44.9921125  98.6026500  86.8168250  44.2502861  98.7509135  87.4032880
  44.6713869  98.8634765  85.9534999  61.2744739 104.2308404  74.4858763
  61.7996063 104.5695677  73.7608083  61.1867091 103.2955420  74.3021898
  52.9364787 108.1442478  86.6148640  53.2451914 107.8991625  87.4871339
  53.7340269 108.3489116  86.1267510  45.4377738 106.4891928  78.8478644
  46.2635758 106.1895700  78.4677288  45.0871790 105.7199551  79.2968433
  50.4059271 105.8418397  80.9176318  49.7839281 105.1789102  80.6178546
  51.0764138 105.8679529  80.2349966  43.6386343 104.4078255  79.8067578
  42.8018252 103.9800429  79.6251579  43.6109989 104.6010698  80.7438369
  50.4783799  94.3200185  90.5108824  50.5271954  95.1962307  90.1286593
  51.0206313  93.7777578  89.9380467  61.0836520 101.7133774  87.1042689
  61.1334525 101.5483782  88.0458212  60.9750443 100.8461033  86.7140570
  49.9672778 104.3922320  74.3934778  50.1160899 105.0757784  73.7401451
  50.7739222 104.3727410  74.9084234  58.3740282  97.6964702  88.4201996
  59.2750145  97.5571167  88.1285994  58.4488257  97.8619157  89.3600174
  52.7083087  95.0731557  87.2655182  51.8386397  95.3665123  86.9937771
  52.9442568  95.6572002  87.9862446  63.7850399 101.6983596  79.8687281
  64.6197290 102.1373400  80.0324842  63.9209528 101.2222249  79.0495527
  60.8341905  99.2563330  85.8164769  61.3096026  99.4490977  85.0083620
  59.9107470  99.3122516  85.5708153  47.7225411 100.4187498  75.3995847
  47.4771453  99.5149828  75.5976057  47.8921326 100.4204648  74.4575325
  55.4122121  91.2911174  84.7820603  55.9304065  92.0272201  84.4567091
  55.0577254  91.5975167  85.6167362  46.9921059  96.1515855  72.8982009
  46.2990304  96.2260210  72.2422045  46.7472811  95.3876199  73.4203526
  55.6634715  87.7111457  80.3021499  55.9436469  87.0434646  80.9281926
  56.4485322  87.9040552  79.7896163  53.4668184 106.8870450  71.8646526
  52.8942151 107.5060638  71.4116998  54.0400978 107.4369812  72.3986448
  59.5343574  96.1329091  84.0493075  60.4860997  96.2327188  84.0705299
  59.3647024  95.3407359  84.5591159  57.5557953  93.2184674  84.2352475
  56.9607885  93.4989686  83.5398964  57.2707650  93.7078575  85.0069217
  56.6865444 107.1707601  72.9955108  57.6196117 107.1053162  73.1987984
  56.5988657 108.0063867  72.5369641  59.3153460 106.4873471  69.9559056
  59.2367092 106.1533335  70.8494814  60.1363127 106.9795239  69.9550528
  62.0131652  99.3535210  83.1635374  61.9807972  98.4151211  83.3495058
  62.6232275  99.4319247  82.4301199  53.8514982  98.2231263  69.2062578
  54.7974087  98.0937471  69.2750996  53.4729227  97.4845925  69.6832006
  62.1626140  96.1446254  83.2093657  61.6465189  95.3604710  83.0223586
  63.0466089  95.8164970  83.3740177  59.8236867  89.8887269  79.1689470
  59.6261688  89.5802357  80.0532802  60.4336573  90.6148908  79.2987400
  67.8308201 100.4151217  82.3041411  68.5611590 100.1536505  82.8649114
  67.2215147  99.6779939  82.3443479  65.9123499  98.5559080  82.9015862
  65.1856662  98.4215045  82.2932354  65.4970785  98.8635908  83.7072580
  52.0357900  96.1481240  69.1417463  51.1289355  95.8514352  69.2180177
  52.3133881  95.8511058  68.2751750  42.9535840  97.4687603  79.5916510
  42.6338624  96.6152911  79.2990884  42.4069268  97.6836181  80.3474477
  46.7315747 100.1850044  83.3086016  46.9501757 101.1167152  83.3274050
  47.1441521  99.8258018  84.0940820  53.6519965  90.6918129  75.2961705
  52.8420694  90.3465214  75.6716951  54.3404382  90.3825673  75.8849316
  55.5810514  89.7696176  76.9186001  56.1341552  90.1891630  77.5776025
  55.8180600  88.8431924  76.9608957  51.6043613  95.7583250  92.6988765
  51.5040340  96.7077607  92.6300856  51.3865155  95.4301489  91.8264835
  50.8056684  93.0068175  69.2829443  51.6675848  93.3323073  69.5425260
  50.9907028  92.2199671  68.7702508  42.8224100 101.0890514  81.5609631
  42.1287571 100.6744467  81.0479586  43.5697091 101.1311051  80.9643050
  58.9589321  91.8796701  76.4264666  58.3787990  92.5381505  76.0442718
  58.6925253  91.0574046  76.0152083  57.4092887  91.2801759  78.6285986
  57.9092665  91.3918294  77.8200305  58.0528495  90.9762812  79.2686794
  51.4674883  99.1880389  91.5153827  50.9841965  99.9880749  91.7217716
  51.5535822  99.1988333  90.5621271  44.7360842 101.0208768  79.4375646
  44.7131531 101.1196456  78.4857529  45.0461479 101.8673919  79.7592812
  47.3948220 103.0784923  83.5522261  48.3491474 103.0468866  83.4852192
  47.1960744 102.6175547  84.3672487  47.9847602 101.6486039  86.1193058
  48.8040491 102.1430118  86.1427896  48.2584410 100.7318007  86.0910626
  57.7414199  94.0396792  75.4821014  56.8540054  94.3246442  75.2641209
  58.1568188  93.8790555  74.6348291  61.0928735  94.0643313  79.1975353
  61.8689125  94.5539765  79.4699970  60.3676869  94.4901367  79.6547223
  63.5301293  94.7770932  80.2549294  64.1245784  94.5366668  79.5442602
  63.6027877  94.0578062  80.8822830  56.8857412 103.8041466  69.5769034
  57.5893262 104.0091469  70.1926690  56.1620061 104.3718228  69.8418117
  57.7155222  99.5551328  75.6971304  57.6590424 100.0119879  74.8578936
  58.2683565  98.7942012  75.5194147  61.5260028  95.3441059  76.5221424
  61.2696963  94.9437695  77.3529631  60.9012896  96.0584853  76.3971563
  65.8372366  98.0837133  79.0292715  65.2771924  98.1530322  79.8024277
  65.2315870  97.9078117  78.3092211  58.7944110 104.2423996  71.6267494
  59.6289713 103.8105194  71.4444969  58.6328452 104.0706009  72.5544388
  58.4490002 100.7456109  72.9923833  58.3938806 100.5800380  72.0512277
  57.8236057 101.4532142  73.1486023  43.2382517  95.9824173  86.8185255
  43.8841380  95.4723127  87.3072481  43.0299668  96.7192855  87.3928681
  51.7586127  90.2464218  72.5709152  51.7464797  91.1906058  72.7277423
  52.6509549  90.0634363  72.2768613  51.6875691 108.9233108  80.6576908
  50.7371322 108.9234970  80.5441281  51.9908177 108.1765843  80.1412943
  55.5738247  86.8406994  76.8255088  54.8070642  86.2865481  76.9711771
  55.9848952  86.9128863  77.6869240  47.5780008  93.1291790  90.9160270
  48.4411469  92.7728595  91.1263594  47.0045418  92.7905685  91.6035674
  63.6359687 109.8737475  71.8933548  63.8034089 110.7417711  72.2604019
  63.4456856 110.0364757  70.9694837  63.6148908 112.3295132  72.8780215
  63.4948533 112.7752183  73.7165695  62.9201496 112.6780450  72.3193753
  69.3133974 112.8016606  73.7060549  70.2251830 113.0343992  73.5308247
  68.8043621 113.3853650  73.1435628  66.9986632 103.9811489  83.7774779
  66.6550902 104.8713131  83.7013890  67.3665595 103.7913147  82.9144365
  64.5484026 108.8169801  77.3432453  63.6925622 108.4276651  77.1638092
  64.9610978 108.8961762  76.4832239  66.0783173 106.3516144  81.7424013
  65.5747968 106.3146279  80.9291818  66.3713780 107.2608887  81.8020669
  62.3226059 106.4354874  80.7490194  63.1879055 106.2397683  80.3896084
  62.3903568 106.2065226  81.6759551  66.7523218 111.8447192  74.1106996
  66.4473354 112.1593341  74.9617139  67.7053660 111.9228612  74.1534329
  59.9288378 108.6657082  78.1206561  60.5032130 108.4432263  77.3879754
  60.5159360 108.7345776  78.8735163  60.2557965 110.6961543  72.1402447
  59.4195277 111.0336229  72.4611721  60.1162735 110.5610523  71.2029584
  62.2311045 105.5398331  76.8481631  61.5775458 105.2247348  76.2238245
  62.1891520 104.9174071  77.5741454  66.2483834 113.4271680  76.3031959
  66.9955653 113.9393077  75.9939081  66.5175423 113.1055733  77.1636352
  68.6962671 110.4628796  78.2850748  67.9585428 109.9506182  78.6160990
  68.9489444 110.0229178  77.4734025  68.7974298 103.2405048  78.8792517
  69.1033175 102.3802412  78.5918432  69.5226903 103.8322668  78.6791511
  60.5001812 109.7254256  82.7620322  61.1401192 109.5843016  82.0643285
  59.6679343 109.4388770  82.3858924  57.5030429 109.6954581  77.5393309
  57.7637246 110.6099915  77.4302469  58.3247601 109.2279024  77.6889922
  60.1296345 110.5408770  69.3400353  59.2525811 110.4197571  68.9762600
  60.6054098 109.7494849  69.0879242  66.6256921 108.7029690  79.2297079
  67.1225621 107.9499652  78.9098149  65.8543903 108.7394007  78.6640289
  63.2091890 110.8447073  78.9568764  62.8389678 110.2918113  79.6449669
  63.7050982 110.2405207  78.4043764  69.0675916 105.6699284  81.3776438
  68.1538996 105.9003510  81.5458645  69.4969017 105.7537728  82.2290470
  58.6057224 108.2551064  85.2021870  58.6698550 109.1165895  84.7899268
  58.5424344 107.6425065  84.4694228  58.3869286 110.2106622  80.7640808
  57.6655872 110.8242590  80.6248281  59.1762542 110.7464387  80.6857454
  56.5862881 109.8164723  74.9052584  56.2575587 108.9362102  74.7227690
  56.9402251 109.7612392  75.7928973  59.7004704 110.1037693  75.2728062
  60.0400776 110.6323614  74.5506670  60.1476824 110.4418099  76.0486628
  63.0464616 105.5724056  83.1758453  63.8690686 105.0984534  83.0537343
  63.2902680 106.3514540  83.6757139  61.6872851 108.6012315  73.4721355
  62.4081213 108.9793567  72.9685071  61.0638155 109.3201191  73.5756333
  65.8303974 109.3057464  74.4079687  66.0467588 110.1882101  74.1068515
  65.3498041 108.9143677  73.6785329  62.4299578 109.2545725  81.0331321
  62.4161147 108.3586818  80.6963619  63.1472006 109.2616388  81.6669607
  61.8336474 108.1360105  76.3018891  61.9552385 107.2076751  76.5009779
  61.5438516 108.1498791  75.3897207  64.7027664 105.8215015  79.4385611
  64.7249361 105.8854349  78.4837591  65.1195723 104.9819524  79.6326117
  66.5028470 103.0403374  80.3021499  66.7830224 102.3726563  80.9281926
  67.2879077 103.2332470  79.7896163  64.6908737 113.5523181  69.2062578
  65.6367842 113.4229389  69.2750996  64.3122982 112.8137843  69.6832006
  70.6630621 105.2179187  79.1689470  70.4655443 104.9094275  80.0532802
  71.2730327 105.9440826  79.2987400  62.8751654 111.4773157  69.1417463
  61.9683109 111.1806270  69.2180177  63.1527635 111.1802975  68.2751750
  64.4913720 106.0210047  75.2961705  63.6814448 105.6757132  75.6716951
  65.1798137 105.7117591  75.8849316  66.4204268 105.0988094  76.9186001
  66.9735307 105.5183547  77.5776025  66.6574354 104.1723842  76.9608957
  61.6450439 108.3360092  69.2829443  62.5069603 108.6614991  69.5425260
  61.8300783 107.5491588  68.7702508  69.7983075 107.2088619  76.4264666
  69.2181744 107.8673423  76.0442718  69.5319008 106.3865964  76.0152083
  68.2486642 106.6093677  78.6285986  68.7486420 106.7210211  77.8200305
  68.8922249 106.3054729  79.2686794  68.5807953 109.3688709  75.4821014
  67.6933808 109.6538360  75.2641209  68.9961942 109.2082473  74.6348291
  72.3653783 110.6732977  76.5221424  72.1090717 110.2729613  77.3529631
  71.7406651 111.3876771  76.3971563  62.5979882 105.5756136  72.5709152
  62.5858551 106.5197975  72.7277423  63.4903304 105.3926281  72.2768613
  66.4132001 102.1698912  76.8255088  65.6464397 101.6157399  76.9711771
  66.8242706 102.2420781  77.6869240  13.2259613  15.1196181  68.4467977
  13.8638023  15.0002928  67.7431317  13.1080456  16.0677025  68.5055930
  10.0349320  15.0723609  68.3829502   9.6967831  14.9564674  67.4950037
  10.9039088  14.6714774  68.3630508   5.8936135  16.9259085  64.3726393
   5.3301001  16.8349022  63.6042681   5.7788530  16.1058990  64.8528886
  10.5169103  16.2258461  74.3415708  10.5057743  15.8311259  73.4696211
  10.6789742  15.4924533  74.9349479   3.4400567  18.4210277  67.2110613
   4.2321859  18.0801102  66.7956913   3.6797218  18.5305252  68.1312767
  11.4735694  20.5930053  59.6840858  10.8223674  21.1784133  59.2974872
  12.2680057  21.1236248  59.7435895   5.3991321  17.6819190  60.0827992
   6.1722197  17.1348177  59.9440868   5.7516720  18.5463440  60.2942454
   7.2376364  19.0095572  73.2894892   6.9466230  19.9141203  73.1741558
   7.8733348  19.0512100  74.0038961   8.1632571  16.3872421  69.8796251
   8.7596143  16.1628443  69.1653214   8.2207542  15.6457166  70.4821699
   7.7357599  13.8411856  57.7146442   7.9883120  13.3193378  56.9529905
   6.7982158  13.6778002  57.8173126  12.7800882  12.8447635  65.5221185
  13.5663971  12.4267058  65.1711602  13.0439586  13.7493727  65.6902834
  12.9510959  18.2820485  60.2209842  12.3156792  18.3555112  60.9330747
  12.6208366  18.8714084  59.5428921  18.1809309  12.7822868  66.4254164
  18.9134481  12.2122085  66.6591993  17.4248665  12.3944468  66.8660669
   7.4553888  15.7439962  59.9170817   7.3390146  15.0684866  60.5851901
   7.5656148  15.2572336  59.1002970   9.7985429  15.2050109  63.6217506
   9.4343636  14.6780730  64.3330428  10.6552545  14.8148578  63.4483992
  15.7034729   6.4944442  70.8848772  15.3718054   7.3639853  70.6609987
  15.1080343   6.1780726  71.5642803   9.4390916  10.2340009  58.6178855
   9.6065318  11.1020245  58.9849326   9.2488085  10.3967291  57.6940144
  12.1966249  18.6956988  70.2844685  11.8966972  19.5982027  70.1760492
  11.8517308  18.4289171  71.1365838   5.6478730  15.1470785  66.3181390
   4.7229227  15.0146999  66.5259081   5.8963144  15.9265004  66.8151332
  15.5963393  11.2139528  67.9642123  14.6880270  11.1454937  67.6700884
  15.5450989  11.6911473  68.7923948   9.4180137  12.6897667  59.6025522
   9.2979762  13.1354717  60.4411002   8.7232725  13.0382984  59.0439060
   3.0087541  14.7904058  67.1525179   3.1379923  15.0438537  68.0664590
   2.3284993  15.3831766  66.8329834   7.1787029  25.4601308  63.2515653
   7.1011058  26.4109133  63.3304133   6.5748672  25.1147181  63.9090579
   9.6704258  12.6329174  75.9077020   8.8937593  13.1923094  75.8979884
  10.3094822  13.1185957  76.4291890  17.4625039   9.4155967  69.7419996
  16.8199419   9.7088500  69.0959791  16.9579968   9.3008887  70.5473193
  15.1165203  13.1619140  60.4305856  16.0283059  13.3946527  60.2553553
  14.6074850  13.7456184  59.8680934   7.9250631  15.4414627  75.4694987
   8.6665315  15.9799671  75.1929810   7.2187616  16.0680916  75.6266539
  13.4005970  17.5843768  74.0667148  13.8089326  17.1426178  73.3221781
  12.6783232  17.0096395  74.3201341   9.7537040  12.5216374  71.4400705
  10.5998236  12.9455788  71.5835354   9.6935678  11.8649999  72.1339268
  13.7234785  18.1444958  67.8219437  13.0943648  18.3090672  67.1195505
  13.3360447  18.5586568  68.5930401  17.6024017  19.0799396  65.1763801
  16.9175055  19.4598297  64.6260834  17.6867866  19.6894723  65.9095749
  12.9036486  10.1820743  73.0981879  12.6597418  10.9362803  72.5616155
  13.1796416  10.5606090  73.9329126  14.8574949  16.7259355  71.7759144
  15.0691844  17.3691115  71.0993526  14.8104697  15.8921672  71.3081075
  12.4601178   9.3377176  68.6795717  11.5985657   9.6358429  68.9712454
  12.4863612   9.5547575  67.7476749   9.2762747  17.8819366  65.0869522
   9.7401092  18.1607069  64.2974145   9.0119545  16.9802811  64.9042613
   6.1686828  17.4290848  68.0249286   6.7388185  17.8578116  67.3866770
   6.7594940  17.1473433  68.7233471   8.2131633  14.0042519  61.8959087
   8.9155676  14.4563562  62.3633014   7.8812262  13.3626338  62.5238981
  15.9720777  19.6031311  69.9481502  16.7938220  19.2011498  69.6664183
  15.9683179  19.4999545  70.8997618   9.7377380  19.1515354  72.1042212
   9.8021813  19.6135761  72.9400384   9.0288304  18.5212719  72.2324522
  24.0626770  15.9470059  66.2966473  23.3090478  15.3777457  66.1410478
  24.1974311  15.9132723  67.2437108   9.4525398  20.8183461  61.9721193
   9.3171072  21.6634997  62.4006040   9.9935210  21.0202739  61.2087126
   2.9054795  18.3358899  62.5449118   3.4179316  19.1302150  62.6954682
   3.5577508  17.6385190  62.4782719   4.7149680  21.4524656  64.6271871
   4.8916308  22.3742620  64.4392855   5.5106513  21.1383075  65.0566251
  11.0793874  21.4407028  76.1021535  10.6357728  20.6543406  75.7842439
  11.7411088  21.6286178  75.4365426   5.8380995  22.9702829  70.6282213
   6.3888420  22.8419893  69.8559207   4.9992471  23.2697718  70.2777106
  13.1775112  21.7209828  74.1302936  13.1593587  22.5418709  73.6383205
  14.0995032  21.5963903  74.3553077   9.6348166  19.2353957  74.9726444
  10.1676503  18.4742245  74.7425752   9.1062247  18.9427609  75.7150599
   0.8703712  16.6647554  63.3208688   1.7078934  17.0744562  63.1042396
   1.0481980  15.7246996  63.2908882  12.7668144  14.3322634  59.0092521
  12.2514767  15.1027239  59.2480909  12.4945452  13.6587770  59.6325583
  17.7402418  17.0854989  60.9445695  16.9631861  16.7466148  60.5000857
  18.4193899  17.0907612  60.2700660  12.5554447  12.2049726  60.8352302
  12.2504583  12.5195876  61.6862446  13.5084889  12.2831146  60.8779635
  11.0000879  18.3639950  62.4845256  10.4722241  17.6292709  62.1718494
  10.4988382  19.1414626  62.2385225  15.9793725  16.5588970  67.6012303
  15.3217399  17.2488232  67.6892431  16.7834124  16.9485402  67.9446289
  14.7899184  14.9133343  65.6516244  15.3031066  15.5463335  66.1537954
  15.4400408  14.3134538  65.2859604   9.1453479  16.1820160  55.4880229
   8.2380541  15.9509413  55.6871378   9.6424511  15.3857779  55.6754211
  12.0521558  24.8917667  58.4076916  11.3783257  25.1949364  59.0161873
  12.4387380  25.6946747  58.0582373  11.2680015  12.3882798  67.8974585
  10.3502576  12.6097745  67.7396273  11.6840158  12.4629109  67.0386292
  12.0515062  13.7874214  63.0277265  12.7986881  14.2995611  62.7184387
  12.3206652  13.4658267  63.8881659  10.3241713  16.2832755  60.0104220
   9.4152932  15.9991788  60.1076689  10.3536796  16.7031833  59.1507526
  15.5560980  19.8939344  63.7795387  15.1023307  19.0530254  63.8360578
  14.9254947  20.5300743  64.1170167  14.4993900  10.8231330  65.0096055
  13.7616656  10.3108717  65.3406297  14.7520673  10.3831712  64.1979331
  13.9993919  21.7315841  64.7145205  14.2916894  22.2920898  63.9957571
  14.5092540  22.0244402  65.4698364   8.8726607  13.8961375  66.1114015
   8.9275216  12.9435212  66.0356491   8.0617809  14.0520815  66.5955313
  10.0217800  17.8241499  57.3492298   9.5837230  17.1077357  56.8897935
  10.7628241  18.0517613  56.7877389   6.8118967  12.5138435  63.8704394
   5.9986832  12.8132606  64.2769586   7.3077961  12.1194124  64.5878876
   8.9627544  22.5096192  65.8038658   8.9203723  22.7357038  64.8747190
   9.8790243  22.2759567  65.9524460  12.4093178  12.9780260  72.7019288
  12.7642566  13.2051733  73.5613753  13.0565309  13.3098636  72.0796543
  18.1390915  16.0998696  63.4068617  18.0008814  16.2900292  62.4789806
  17.7827134  16.8618078  63.8636668  18.1660295  18.1675223  68.4179888
  18.5996801  18.0750512  69.2662942  18.8791875  18.1432723  67.7799904
   7.0793345  19.3859221  65.6000621   7.8733944  18.8909541  65.3983196
   6.3685038  18.8577084  65.2368327  11.8988190  21.7677317  69.9512989
  11.9525212  22.3368253  70.7190705  11.0302971  21.9379202  69.5867026
  19.0275844  18.2098923  70.9512774  19.2211734  19.1144734  71.1972048
  18.9276462  17.7506342  71.7851359  14.0890953  18.3605666  76.5253654
  13.9376459  18.1316218  75.6083738  14.0795632  19.3176267  76.5384999
  10.8576289  15.9337579  71.5099921  11.7868349  16.0848738  71.3368888
  10.4367319  16.0221599  70.6548567   9.6564621  19.9588243  69.2798458
   9.5175707  19.5907028  70.1524396   8.8679217  20.4735883  69.1082416
  10.2512773  25.0597340  60.6223995  10.4264529  24.5885383  61.4369617
   9.5645561  25.6863106  60.8505255  11.2069836  19.3369846  66.6687296
  10.8719669  19.2970616  67.5644946  10.7073782  18.6714562  66.1957706
   5.1814080  14.7437476  72.1939877   5.0433878  14.0117715  72.7951416
   6.0919004  14.6546376  71.9124065  14.1429028  16.6825880  56.9424356
  13.5258199  15.9572708  56.8457408  13.6745516  17.4435240  56.5991430
   7.8096381  14.4557435  71.6823557   8.5195999  13.8150627  71.6410175
   7.7665689  14.7070330  72.6049738  15.7983160  21.3924788  74.6030136
  15.7395706  20.7084009  73.9360719  16.2002678  22.1343779  74.1510762
   4.8173858  28.2086702  67.3963855   5.0570457  28.8405227  68.0742874
   3.9743055  27.8574742  67.6829214  15.8000567  19.3564372  72.8344116
  14.9127346  19.0190294  72.9570515  16.3699118  18.6247404  73.0712881
   9.3301720  24.0165825  69.8005359   9.2571892  24.8220796  70.3124663
   8.8879113  24.2157791  68.9753380   9.1191500  23.2537595  63.3108180
   8.3359022  23.7959275  63.4046405   9.8184245  23.7711574  63.7102422
  12.4288150   9.0632224  65.9542386  12.9256850   8.3102187  65.6343456
  11.6575132   9.0996541  65.3885595  20.2817907  14.7672590  67.5960677
  20.2707784  15.6497305  67.2254610  19.4135287  14.4144141  67.4015214
  11.7900404  23.9152659  71.9563518  12.5028376  24.5500124  71.8839419
  11.2990432  24.0116525  71.1403519  13.5117931  17.8203911  63.5280809
  12.5774209  17.9405374  63.3585514  13.6894599  16.9176378  63.2640819
   9.0123119  11.2049607  65.6814070   8.6420906  10.6520648  66.3694976
   9.5082211  10.6007741  65.1289070  16.8990482  13.6621231  64.0630843
  17.3650934  14.4949222  63.9891146  17.3497983  13.1966212  64.7676102
   6.8412317  21.6647102  72.7769088   7.5421777  22.2983585  72.9298483
   6.3707432  22.0061834  72.0164728  14.9666713  20.0065052  61.0616995
  15.2426557  19.8921647  61.9710870  14.0971212  19.6082537  61.0229169
  14.6413603  14.2191710  70.6021639  13.9885054  14.4667617  69.9474092
  15.0193983  13.4055848  70.2684116  11.6020777  24.2551403  64.7049809
  11.7843172  23.4373059  65.1677561  12.4253763  24.4719095  64.2674699
  11.9362943  23.1819588  61.9664858  12.4650709  22.6712043  61.3535020
  12.1991162  22.8662118  62.8310391  10.6901176  14.9611521  77.0887676
  10.0141813  14.8605650  77.7590051  11.5128810  14.8050735  77.5523673
   2.4380035  21.1983457  69.7100191   3.0233472  20.4527145  69.8428095
   2.2404874  21.5087414  70.5936855   5.2918691  24.2334705  64.7262633
   4.6229066  24.7180832  64.2426674   5.1531560  24.4803925  65.6406012
   9.4323959  26.2678448  71.3245292   9.9842267  26.4310070  72.0894377
   9.7730153  26.8582886  70.6525317  14.2834834  21.0939706  77.1793946
  14.8274738  21.7069664  76.6848901  13.7021678  21.6519284  77.6960959
  12.5692347  24.2160424  68.3108974  12.4443486  23.4150164  67.8019919
  13.2271438  24.7106617  67.8222944  14.6327255  22.0169444  69.9388524
  13.6857590  21.8974795  69.8666851  14.9810028  21.1291942  70.0214786
  11.6373688  21.8122160  66.1392876  11.4898651  20.8838867  66.3200446
  12.4627182  21.8342251  65.6549952  15.2407810  22.6350719  67.2257749
  16.1654358  22.4293580  67.0882200  15.0723113  22.3867120  68.1347091
  11.6335203   9.6659998  61.1324994  11.8498817  10.5484636  60.8313822
  11.1529270   9.2746211  60.4030636   6.3734424  12.6245711  67.7095738
   6.2279005  12.9386014  68.6020020   5.8959628  13.2430611  67.1566637
  10.0856937  10.0485599  69.8029755   9.8274715  10.9702670  69.8014086
   9.5541978   9.6516034  70.4930219  15.0303126  23.1536386  62.5819841
  15.2040004  22.5882809  61.8293693  15.5232017  23.9537281  62.3999330
  20.8842517  15.9172809  64.2010140  21.3273663  15.1680134  63.8029264
  20.0069028  15.9082946  63.8183872  16.0178299  22.4703151  59.6816739
  16.7129203  23.0909843  59.9004053  16.3601449  21.6198502  59.9569117
  17.9169722  19.9202856  61.2104070  18.4421046  20.2590129  60.4853390
  17.8292074  18.9849872  61.0267204   9.5789771  23.8336930  73.3393946
   9.8876897  23.5886077  74.2116646  10.3765253  24.0383568  72.8512816
   9.6010383  25.9874839  65.5699323   9.1615373  25.4951218  66.2632179
  10.3518500  25.4447807  65.3291398   2.0802722  22.1786380  65.5723951
   2.9060741  21.8790152  65.1922594   1.7296774  21.4094003  66.0213739
   7.0484255  21.5312849  67.6421624   6.4264264  20.8683554  67.3423852
   7.7189122  21.5573980  66.9595272  17.6063628  20.5535760  76.5155268
  16.8159172  20.5359899  75.9759767  17.3696982  21.0924054  77.2704304
  17.7261503  17.4028226  73.8287996  17.7759508  17.2378234  74.7703519
  17.6175426  16.5355485  73.4385877   6.6097762  20.0816772  61.1180085
   6.7585882  20.7652236  60.4646758   7.4164205  20.0621862  61.6329541
  15.0165265  13.3859154  75.1447303  15.9175128  13.2465619  74.8531301
  15.0913240  13.5513609  76.0845480   9.3508071  10.7626009  73.9900489
   8.4811380  11.0559575  73.7183078   9.5867551  11.3466454  74.7107753
  19.2279700  19.8225168  74.0730018  18.9364508  20.1855148  74.9093479
  18.6151831  19.1092176  73.8943350  20.4275382  17.3878047  66.5932588
  21.2622273  17.8267852  66.7570148  20.5634511  16.9116701  65.7740834
  17.4766888  14.9457782  72.5410076  17.9521010  15.1385429  71.7328927
  16.5532453  15.0016968  72.2953459   4.3650395  16.1081950  62.1241154
   4.1196437  15.2044280  62.3221364   4.5346309  16.1099100  61.1820632
  10.1093167  22.5764902  58.5891832   9.5367134  23.1955089  58.1362304
  10.6825961  23.1264264  59.1231754  16.1768557  11.8223542  70.7738381
  17.1285980  11.9221640  70.7950605  16.0072007  11.0301811  71.2836466
  14.1982937   8.9079126  70.9597782  13.6032869   9.1884138  70.2644271
  13.9132633   9.3973027  71.7314523  13.3290427  22.8602052  59.7200415
  14.2621100  22.7947614  59.9233290  13.2413640  23.6958319  59.2614947
  15.9578444  22.1767923  56.6804362  15.8792075  21.8427786  57.5740120
  16.7788110  22.6689691  56.6795835  18.6556635  15.0429662  69.8880681
  18.6232955  14.1045663  70.0740365  19.2657258  15.1213699  69.1546506
  10.4939966  13.9125715  55.9307885  11.4399070  13.7831923  55.9996303
  10.1154211  13.1740377  56.4077313  18.8051123  11.8340706  69.9338964
  18.2890172  11.0499162  69.7468893  19.6891072  11.5059422  70.0985484
  16.4661850   5.5781721  65.8934777  16.2686671   5.2696809  66.7778109
  17.0761556   6.3043360  66.0232707  24.4733185  16.1045669  69.0286718
  25.2036573  15.8430957  69.5894421  23.8640130  15.3674391  69.0688786
  22.5548482  14.2453532  69.6261169  21.8281645  14.1109496  69.0177660
  22.1395769  14.5530360  70.4317887  10.3778658  17.9643461  77.3908542
  11.2981668  18.1422060  77.5848588  10.3428241  17.0199507  77.2388241
   8.6782883  11.8375691  55.8662770   7.7714338  11.5408804  55.9425484
   8.9558864  11.5405510  54.9997056   3.3740731  15.8744496  70.0331323
   3.5926741  16.8061604  70.0519357   3.7866505  15.5152470  70.8186127
  15.6014304   7.5691153  63.1509972  15.0212973   8.2275957  62.7688025
  15.3350237   6.7468498  62.7397390  14.0517870   6.9696211  65.3531293
  14.5517649   7.0812745  64.5445611  14.6953478   6.6657264  65.9932101
   1.3785826  16.7103220  66.1620953   1.3556514  16.8090907  65.2102836
   1.6886462  17.5568371  66.4838119   4.0373204  18.7679375  70.2767567
   4.9916457  18.7363318  70.2097499   3.8385727  18.3069999  71.0917793
   4.6272586  17.3380491  72.8438365   5.4465475  17.8324570  72.8673202
   4.9009393  16.4212459  72.8155933  14.3839182   9.7291244  62.2066321
  13.4965037  10.0140894  61.9886515  14.7993171   9.5685007  61.3593597
  17.7353718   9.7537765  65.9220660  18.5114108  10.2434217  66.1945277
  17.0101852  10.1795819  66.3792529  20.1726277  10.4665384  66.9794600
  20.7670768  10.2261120  66.2687909  20.2452860   9.7472514  67.6068137
   2.3923432  24.3098995  67.2937765   2.2577900  23.5499396  66.7275763
   1.9755495  25.0339895  66.8266554  13.5282395  19.4935918  56.3014341
  14.2318246  19.6985921  56.9171996  12.8045044  20.0612680  56.5663424
  14.3580206  15.2445779  62.4216611  14.3015407  15.7014331  61.5824243
  14.9108548  14.4836464  62.2439453  18.1685012  11.0335511  63.2466730
  17.9121946  10.6332147  64.0774938  17.5437880  11.7479305  63.1216869
  22.4797349  13.7731585  65.7538022  21.9196907  13.8424774  66.5269584
  21.8740853  13.5972569  65.0337518   5.5492558  25.2068312  67.5056208
   5.4324942  26.1513744  67.4034898   4.7285005  24.9041873  67.8942007
  15.4369093  19.9318447  58.3512801  16.2714697  19.4999646  58.1690275
  15.2753436  19.7600461  59.2789695  15.0914985  16.4350561  59.7169140
  15.0363789  16.2694832  58.7757584  14.4661040  17.1426594  59.8731330
  12.4060892  18.7399473  79.0422703  13.2752052  18.9140125  78.6809338
  11.9267644  19.5593889  78.9198432   6.5747072  25.8596574  70.7212136
   7.4774319  25.8920184  71.0378631   6.3484442  24.9297025  70.7358472
   8.3300674  24.6127560  67.3822215   7.3796305  24.6129422  67.2686587
   8.6333161  23.8660295  66.8658250  24.0653368  30.4488099  68.4467977
  24.7031778  30.3294846  67.7431317  23.9474211  31.3968942  68.5055930
  20.8743074  30.4015527  68.3829502  20.5361586  30.2856591  67.4950037
  21.7432842  30.0006692  68.3630508  16.7329890  32.2551003  64.3726393
  16.1694755  32.1640940  63.6042681  16.6182285  31.4350907  64.8528886
  21.3562857  31.5550378  74.3415708  21.3451498  31.1603177  73.4696211
  21.5183497  30.8216451  74.9349479  14.2794322  33.7502195  67.2110613
  15.0715614  33.4093019  66.7956913  14.5190972  33.8597170  68.1312767
  22.3129449  35.9221971  59.6840858  21.6617428  36.5076051  59.2974872
  23.1073811  36.4528166  59.7435895  16.2385076  33.0111108  60.0827992
  17.0115952  32.4640095  59.9440868  16.5910475  33.8755357  60.2942454
  18.0770118  34.3387490  73.2894892  17.7859984  35.2433121  73.1741558
  18.7127103  34.3804018  74.0038961  19.0026325  31.7164339  69.8796251
  19.5989897  31.4920361  69.1653214  19.0601297  30.9749084  70.4821699
  18.5751354  29.1703774  57.7146442  18.8276874  28.6485295  56.9529905
  17.6375913  29.0069919  57.8173126  23.6194636  28.1739552  65.5221185
  24.4057726  27.7558976  65.1711602  23.8833341  29.0785645  65.6902834
  23.7904714  33.6112403  60.2209842  23.1550547  33.6847029  60.9330747
  23.4602120  34.2006002  59.5428921  29.0203064  28.1114786  66.4254164
  29.7528235  27.5414002  66.6591993  28.2642419  27.7236386  66.8660669
  18.2947642  31.0731880  59.9170817  18.1783900  30.3976783  60.5851901
  18.4049902  30.5864254  59.1002970  20.6379183  30.5342027  63.6217506
  20.2737390  30.0072648  64.3330428  21.4946299  30.1440496  63.4483992
  26.5428484  21.8236360  70.8848772  26.2111809  22.6931771  70.6609987
  25.9474097  21.5072644  71.5642803  20.2784670  25.5631927  58.6178855
  20.4459073  26.4312163  58.9849326  20.0881839  25.7259208  57.6940144
  23.0360003  34.0248906  70.2844685  22.7360727  34.9273944  70.1760492
  22.6911063  33.7581089  71.1365838  16.4872485  30.4762703  66.3181390
  15.5622981  30.3438917  66.5259081  16.7356898  31.2556922  66.8151332
  26.4357147  26.5431446  67.9642123  25.5274025  26.4746854  67.6700884
  26.3844743  27.0203391  68.7923948  20.2573891  28.0189584  59.6025522
  20.1373516  28.4646635  60.4411002  19.5626479  28.3674902  59.0439060
  13.8481296  30.1195976  67.1525179  13.9773677  30.3730455  68.0664590
  13.1678747  30.7123684  66.8329834  18.0180783  40.7893226  63.2515653
  17.9404813  41.7401051  63.3304133  17.4142427  40.4439099  63.9090579
  20.5098013  27.9621091  75.9077020  19.7331347  28.5215012  75.8979884
  21.1488576  28.4477874  76.4291890  28.3018794  24.7447884  69.7419996
  27.6593174  25.0380417  69.0959791  27.7973722  24.6300805  70.5473193
  25.9558957  28.4911057  60.4305856  26.8676813  28.7238444  60.2553553
  25.4468604  29.0748102  59.8680934  18.7644385  30.7706545  75.4694987
  19.5059070  31.3091589  75.1929810  18.0581371  31.3972834  75.6266539
  24.2399725  32.9135685  74.0667148  24.6483081  32.4718096  73.3221781
  23.5176986  32.3388313  74.3201341  20.5930795  27.8508292  71.4400705
  21.4391990  28.2747706  71.5835354  20.5329433  27.1941916  72.1339268
  24.5628540  33.4736876  67.8219437  23.9337402  33.6382590  67.1195505
  24.1754202  33.8878485  68.5930401  28.4417771  34.4091314  65.1763801
  27.7568810  34.7890215  64.6260834  28.5261621  35.0186640  65.9095749
  23.7430240  25.5112660  73.0981879  23.4991172  26.2654721  72.5616155
  24.0190171  25.8898008  73.9329126  25.6968703  32.0551273  71.7759144
  25.9085598  32.6983033  71.0993526  25.6498451  31.2213589  71.3081075
  23.2994932  24.6669093  68.6795717  22.4379411  24.9650347  68.9712454
  23.3257367  24.8839492  67.7476749  20.1156501  33.2111284  65.0869522
  20.5794847  33.4898987  64.2974145  19.8513300  32.3094729  64.9042613
  17.0080583  32.7582766  68.0249286  17.5781940  33.1870034  67.3866770
  17.5988694  32.4765350  68.7233471  19.0525388  29.3334436  61.8959087
  19.7549431  29.7855480  62.3633014  18.7206016  28.6918255  62.5238981
  17.5005749  27.9246193  76.2710297  16.8704410  28.6062474  76.5045694
  17.3941837  27.8129275  75.3263435  12.7950721  27.5917989  67.1976221
  12.0049775  27.8475518  66.7216332  13.2861969  28.4066327  67.3028262
  26.8114531  34.9323228  69.9481502  27.6331975  34.5303415  69.6664183
  26.8076934  34.8291462  70.8997618  14.7465467  27.9562568  64.1559698
  13.9496630  28.0681263  64.6743193  14.5191059  28.2949220  63.2900588
  20.5771134  34.4807271  72.1042212  20.6415567  34.9427679  72.9400384
  19.8682058  33.8504636  72.2324522  11.0788424  27.8448479  69.6291212
  11.3296463  28.7295489  69.8948788  11.6147973  27.6653081  68.8566304
  34.9020524  31.2761977  66.2966473  34.1484232  30.7069375  66.1410478
  35.0368065  31.2424641  67.2437108  20.2919152  36.1475379  61.9721193
  20.1564827  36.9926915  62.4006040  20.8328965  36.3494657  61.2087126
  16.7786492  22.2266959  78.6335548  16.3853437  21.6733157  79.3083192
  17.5952632  22.5377537  79.0242065  13.7448550  33.6650817  62.5449118
  14.2573070  34.4594067  62.6954682  14.3971262  32.9677107  62.4782719
  15.5543434  36.7816573  64.6271871  15.7310063  37.7034538  64.4392855
  16.3500268  36.4674993  65.0566251  19.6954453  23.6424838  76.2255804
  20.4364166  24.2431991  76.1460267  19.9272376  22.9002476  75.6673847
  14.8395791  28.8281205  74.5034034  14.7249306  27.9266462  74.8041133
  13.9840309  29.0744902  74.1518851  21.9187629  36.7698945  76.1021535
  21.4751483  35.9835324  75.7842439  22.5804842  36.9578096  75.4365426
  16.6774750  38.2994747  70.6282213  17.2282175  38.1711810  69.8559207
  15.8386226  38.5989636  70.2777106  24.0168867  37.0501745  74.1302936
  23.9987342  37.8710626  73.6383205  24.9388787  36.9255821  74.3553077
  20.4741921  34.5645875  74.9726444  21.0070258  33.8034163  74.7425752
  19.9456002  34.2719527  75.7150599  23.6411616  19.6705941  70.5020086
  23.2975885  20.5607583  70.4259197  24.0090578  19.4807598  69.6389671
  11.7097466  31.9939471  63.3208688  12.5472688  32.4036480  63.1042396
  11.8875734  31.0538913  63.2908882  23.6061898  29.6614552  59.0092521
  23.0908522  30.4319157  59.2480909  23.3339207  28.9879688  59.6325583
  21.1909009  24.5064253  64.0677760  20.3350606  24.1171103  63.8883398
  21.6035961  24.5856214  63.2077545  22.7208156  22.0410596  68.4669319
  22.2172952  22.0040731  67.6537125  23.0138763  22.9503339  68.5265976
  18.9651042  22.1249326  67.4735501  19.8304039  21.9292134  67.1141391
  19.0328551  21.8959678  68.4004858  28.5796173  32.4146907  60.9445695
  27.8025615  32.0758066  60.5000857  29.2587654  32.4199530  60.2700660
  23.3948202  27.5341644  60.8352302  23.0898337  27.8487793  61.6862446
  24.3478644  27.6123064  60.8779635  21.8394633  33.6931867  62.4845256
  21.3115995  32.9584627  62.1718494  21.3382136  34.4706544  62.2385225
  26.8187479  31.8880888  67.6012303  26.1611154  32.5780149  67.6892431
  27.6227879  32.2777320  67.9446289  16.5713361  24.3551534  64.8451868
  17.1457113  24.1326715  64.1125061  17.1584343  24.4240228  65.5980469
  25.6292938  30.2425261  65.6516244  26.1424820  30.8755252  66.1537954
  26.2794162  29.6426456  65.2859604  16.8982948  26.3855995  58.8647753
  16.0620260  26.7230681  59.1857028  16.7587718  26.2504974  57.9274890
  18.8736029  21.2292783  63.5726937  18.2200441  20.9141800  62.9483552
  18.8316503  20.6068523  64.2986760  19.9847234  31.5112078  55.4880229
  19.0774295  31.2801331  55.6871378  20.4818266  30.7149697  55.6754211
  22.8915313  40.2209585  58.4076916  22.2177011  40.5241282  59.0161873
  23.2781134  41.0238665  58.0582373  22.1073769  27.7174716  67.8974585
  21.1896330  27.9389663  67.7396273  22.5233913  27.7921027  67.0386292
  22.8908817  29.1166132  63.0277265  23.6380636  29.6287529  62.7184387
  23.1600406  28.7950185  63.8881659  21.1635467  31.6124673  60.0104220
  20.2546686  31.3283705  60.1076689  21.1930551  32.0323751  59.1507526
  26.3954734  35.2231262  63.7795387  25.9417062  34.3822172  63.8360578
  25.7648701  35.8592660  64.1170167  25.3387654  26.1523248  65.0096055
  24.6010411  25.6400634  65.3406297  25.5914428  25.7123630  64.1979331
  24.8387674  37.0607759  64.7145205  25.1310648  37.6212816  63.9957571
  25.3486294  37.3536320  65.4698364  25.4399281  18.9299500  65.6037824
  25.7458158  18.0696863  65.3163739  26.1651886  19.5217120  65.4036818
  11.7323637  29.3330187  63.9919422  11.5348037  28.7399547  63.2670488
  11.1770301  29.0282397  64.7095361  19.7120361  29.2253293  66.1114015
  19.7668971  28.2727130  66.0356491  18.9011563  29.3812732  66.5955313
  20.8611555  33.1533416  57.3492298  20.4230985  32.4369275  56.8897935
  21.6021996  33.3809531  56.7877389  17.6512721  27.8430353  63.8704394
  16.8380587  28.1424523  64.2769586  18.1471715  27.4486042  64.5878876
  19.8021299  37.8388110  65.8038658  19.7597478  38.0648956  64.8747190
  20.7183998  37.6051484  65.9524460  23.2486933  28.3072177  72.7019288
  23.6036320  28.5343650  73.5613753  23.8959064  28.6390554  72.0796543
  28.9784670  31.4290613  63.4068617  28.8402568  31.6192209  62.4789806
  28.6220888  32.1909996  63.8636668  17.1426796  25.4148708  69.4865629
  17.7826175  25.2737467  68.7888592  16.3104326  25.1283222  69.1104231
  29.0054049  33.4967140  68.4179888  29.4390556  33.4042429  69.2662942
  29.7185630  33.4724641  67.7799904  17.9187100  34.7151139  65.6000621
  18.7127698  34.2201459  65.3983196  17.2078792  34.1869002  65.2368327
  22.7381944  37.0969234  69.9512989  22.7918966  37.6660171  70.7190705
  21.8696726  37.2671119  69.5867026  14.2269863  28.8594221  61.6760374
  13.2967451  28.7978676  61.8930336  14.3227335  28.3370173  60.8797015
  14.1455412  25.3849033  64.2638615  14.4062229  26.2994367  64.1547776
  14.9672585  24.9173476  64.4135228  15.6180338  26.7986791  71.4337440
  16.2903391  26.5904153  70.7850089  14.7910124  26.6008877  70.9942672
  29.8669599  33.5390841  70.9512774  30.0605489  34.4436651  71.1972048
  29.7670217  33.0798260  71.7851359  21.5205910  23.4248731  73.4503101
  20.8733825  24.1238681  73.3567577  22.2906925  23.8584875  73.8179349
  24.9284707  33.6897584  76.5253654  24.7770214  33.4608135  75.6083738
  24.9189387  34.6468185  76.5384999  21.6970044  31.2629496  71.5099921
  22.6262104  31.4140656  71.3368888  21.2761074  31.3513517  70.6548567
  20.4958376  35.2880161  69.2798458  20.3569461  34.9198945  70.1524396
  19.7072972  35.8027800  69.1082416  21.0906528  40.3889257  60.6223995
  21.2658283  39.9177300  61.4369617  20.4039316  41.0155023  60.8505255
  22.0463591  34.6661763  66.6687296  21.7113423  34.6262533  67.5644946
  21.5467537  34.0006479  66.1957706  16.0207835  30.0729394  72.1939877
  15.8827633  29.3409632  72.7951416  16.9312758  29.9838294  71.9124065
  24.9822782  32.0117798  56.9424356  24.3651953  31.2864626  56.8457408
  24.5139271  32.7727158  56.5991430  18.6490135  29.7849353  71.6823557
  19.3589754  29.1442545  71.6410175  18.6059444  30.0362248  72.6049738
  26.6376914  36.7216706  74.6030136  26.5789460  36.0375926  73.9360719
  27.0396433  37.4635696  74.1510762  17.3619069  26.7714571  73.5019196
  16.8256426  26.3205309  74.1540793  16.7735778  26.9060480  72.7589661
  15.6567613  43.5378620  67.3963855  15.8964211  44.1697144  68.0742874
  14.8136809  43.1866660  67.6829214  16.7721328  26.2303222  56.0645660
  15.8950795  26.1092023  55.7007907  17.2479081  25.4389300  55.8124549
  26.6394321  34.6856290  72.8344116  25.7521100  34.3482212  72.9570515
  27.2092872  33.9539321  73.0712881   8.2923469  31.0180382  66.1587167
   8.9794508  30.7042112  65.5708182   8.1371597  31.9221746  65.8854419
  13.0958191  25.9070578  70.5872191  13.0116379  25.2996248  69.8522601
  12.2740897  26.3979597  70.5881687  20.1695475  39.3457742  69.8005359
  20.0965646  40.1512714  70.3124663  19.7272868  39.5449708  68.9753380
  19.9585254  38.5829512  63.3108180  19.1752776  39.1251193  63.4046405
  20.6578000  39.1003492  63.7102422  23.2681905  24.3924142  65.9542386
  23.7650604  23.6394104  65.6343456  22.4968886  24.4288459  65.3885595
  31.1211662  30.0964507  67.5960677  31.1101538  30.9789223  67.2254610
  30.2529041  29.7436058  67.4015214  22.6294158  39.2444576  71.9563518
  23.3422131  39.8792041  71.8839419  22.1384187  39.3408442  71.1403519
  24.3511685  33.1495829  63.5280809  23.4167964  33.2697292  63.3585514
  24.5288354  32.2468296  63.2640819  19.8516873  26.5341525  65.6814070
  19.4814661  25.9812565  66.3694976  20.3475966  25.9299658  65.1289070
  27.7384237  28.9913148  64.0630843  28.2044689  29.8241140  63.9891146
  28.1891737  28.5258130  64.7676102  17.6806072  36.9939020  72.7769088
  18.3815531  37.6275503  72.9298483  17.2101187  37.3353751  72.0164728
  25.8060468  35.3356970  61.0616995  26.0820312  35.2213564  61.9710870
  24.9364966  34.9374455  61.0229169  25.7100899  21.3593735  68.1021745
  24.7963979  21.5897962  68.2703952  26.1394001  21.4432180  68.9535777
  25.4807358  29.5483627  70.6021639  24.8278808  29.7959535  69.9474092
  25.8587738  28.7347766  70.2684116  22.4414532  39.5843321  64.7049809
  22.6236926  38.7664977  65.1677561  23.2647518  39.8011013  64.2674699
  22.7756697  38.5111506  61.9664858  23.3044464  38.0003960  61.3535020
  23.0384917  38.1954036  62.8310391  21.5294931  30.2903438  77.0887676
  20.8535568  30.1897568  77.7590051  22.3522565  30.1342652  77.5523673
  13.2773790  36.5275375  69.7100191  13.8627227  35.7819063  69.8428095
  13.0798628  36.8379332  70.5936855  16.1312445  39.5626622  64.7262633
  15.4622820  40.0472750  64.2426674  15.9925315  39.8095843  65.6406012
   7.8691445  29.0980975  68.4304634   7.9075544  28.5644566  69.2241752
   7.3631737  28.5716181  67.8115611  20.2717714  41.5970366  71.3245292
  20.8236022  41.7601987  72.0894377  20.6123907  42.1874804  70.6525317
  15.2482207  23.9445516  71.9267177  15.3123533  24.8060347  71.5144574
  15.1849327  23.3319517  71.1939535  14.7234479  26.0168648  75.5740211
  15.3506518  25.6345726  76.1877735  13.8662398  25.7982850  75.9395903
  25.1228588  36.4231623  77.1793946  25.6668492  37.0361582  76.6848901
  24.5415433  36.9811202  77.6960959  11.5000022  27.8245077  61.5058566
  11.7953463  26.9155756  61.4525619  10.5988058  27.8032817  61.1839568
  23.4086101  39.5452341  68.3108974  23.2837240  38.7442081  67.8019919
  24.0665192  40.0398535  67.8222944  15.0294269  25.9001074  67.4886114
  14.3080855  26.5137042  67.3493588  15.8187525  26.4358839  67.4102760
  25.4721009  37.3461362  69.9388524  24.5251345  37.2266713  69.8666851
  25.8203782  36.4583860  70.0214786  17.8320583  23.2355500  73.7626766
  18.3554985  23.4817797  74.5253075  17.6132916  24.0675535  73.3429903
  13.2287864  25.5059175  61.6297891  12.9000570  24.6256554  61.4472997
  13.5827235  25.4506844  62.5174280  22.4767443  37.1414078  66.1392876
  22.3292405  36.2130785  66.3200446  23.3020936  37.1634168  65.6549952
  16.3429687  25.7932145  61.9973368  16.6825759  26.3218066  61.2751977
  16.7901807  26.1312551  62.7731935  26.0801565  37.9642636  67.2257749
  27.0048112  37.7585498  67.0882200  25.9116868  37.7159038  68.1347091
  19.0373128  24.1769196  71.4476437  18.6969948  23.3777009  71.8497116
  18.3312134  24.4770906  70.8753270  19.6889600  21.2618508  69.9003760
  20.5115669  20.7878986  69.7782650  19.9327663  22.0408992  70.4002446
  18.3297834  24.2906766  60.1966661  19.0506197  24.6688019  59.6930378
  17.7063138  25.0095643  60.3001639  22.4728957  24.9951915  61.1324994
  22.6892571  25.8776553  60.8313822  21.9923024  24.6038129  60.4030636
  17.2128178  27.9537629  67.7095738  17.0672759  28.2677932  68.6020020
  16.7353382  28.5722529  67.1566637  19.0724561  24.9440177  67.7576628
  19.0586130  24.0481270  67.4208926  19.7896989  24.9510840  68.3914914
  20.9250692  25.3777517  69.8029755  20.6668470  26.2994587  69.8014086
  20.3935732  24.9807951  70.4930219  25.8696881  38.4828304  62.5819841
  26.0433758  37.9174726  61.8293693  26.3625772  39.2829199  62.3999330
  11.6873841  30.4942973  70.6483399  11.1427309  31.2702781  70.7803674
  12.5653190  30.8413777  70.4902521  18.4761457  23.8254557  63.0264198
  18.5977368  22.8971203  63.2255085  18.1863500  23.8393243  62.1142513
  21.3452648  21.5109467  66.1630918  21.3674344  21.5748800  65.2082897
  21.7620707  20.6713976  66.3571424  31.7236272  31.2464727  64.2010140
  32.1667418  30.4972052  63.8029264  30.8462782  31.2374863  63.8183872
  26.8572053  37.7995068  59.6816739  27.5522958  38.4201761  59.9004053
  27.1995203  36.9490420  59.9569117  12.4739862  29.6212869  73.5413556
  11.7321598  29.7695505  74.1278187  12.1532607  29.8821135  72.6780306
  28.7563476  35.2494774  61.2104070  29.2814800  35.5882047  60.4853390
  28.6685829  34.3141789  61.0267204  20.4183525  39.1628848  73.3393946
  20.7270651  38.9177994  74.2116646  21.2159007  39.3675486  72.8512816
  20.4404137  41.3166757  65.5699323  20.0009127  40.8243136  66.2632179
  21.1912254  40.7739725  65.3291398  12.9196476  37.5078298  65.5723951
  13.7454496  37.2082070  65.1922594  12.5690528  36.7385920  66.0213739
  17.8878009  36.8604766  67.6421624  17.2658019  36.1975471  67.3423852
  18.5582876  36.8865898  66.9595272  11.1205081  35.4264624  66.5312884
  10.2836989  34.9986799  66.3496886  11.0928727  35.6197068  67.4683676
  17.9602537  25.3386554  77.2354130  18.0090692  26.2148677  76.8531900
  18.5025051  24.7963947  76.6625774  28.4457382  35.8827678  76.5155268
  27.6552926  35.8651816  75.9759767  28.2090737  36.4215971  77.2704304
  28.5655257  32.7320144  73.8287996  28.6153262  32.5670151  74.7703519
  28.4569181  31.8647403  73.4385877  17.4491516  35.4108690  61.1180085
  17.5979637  36.0944154  60.4646758  18.2557960  35.3913780  61.6329541
  25.8559020  28.7151072  75.1447303  26.7568883  28.5757537  74.8531301
  25.9306994  28.8805527  76.0845480  20.1901825  26.0917927  73.9900489
  19.3205135  26.3851493  73.7183078  20.4261306  26.6758372  74.7107753
  30.0673454  35.1517085  74.0730018  29.7758263  35.5147066  74.9093479
  29.4545586  34.4384094  73.8943350  31.2669137  32.7169965  66.5932588
  32.1016028  33.1559769  66.7570148  31.4028265  32.2408618  65.7740834
  28.3160643  30.2749700  72.5410076  28.7914764  30.4677346  71.7328927
  27.3926208  30.3308886  72.2953459  15.2044149  31.4373867  62.1241154
  14.9590191  30.5336197  62.3221364  15.3740064  31.4391018  61.1820632
  22.8940859  22.3097544  71.5065909  23.4122803  23.0458571  71.1812398
  22.5395992  22.6161537  72.3412669  14.4739797  27.1702225  59.6227315
  13.7809042  27.2446580  58.9667351  14.2291549  26.4062568  60.1448832
  23.1453453  18.7297826  67.0266806  23.4255207  18.0621015  67.6527233
  23.9304060  18.9226922  66.5141470  20.9486922  37.9056820  58.5891832
  20.3760889  38.5247007  58.1362304  21.5219715  38.4556182  59.1231754
  27.0162312  27.1515460  70.7738381  27.9679734  27.2513558  70.7950605
  26.8465762  26.3593729  71.2836466  25.0376691  24.2371043  70.9597782
  24.4426623  24.5176056  70.2644271  24.7526388  24.7264944  71.7314523
  24.1684181  38.1893970  59.7200415  25.1014855  38.1239532  59.9233290
  24.0807394  39.0250237  59.2614947  26.7972198  37.5059840  56.6804362
  26.7185830  37.1719704  57.5740120  27.6181865  37.9981608  56.6795835
  29.4950389  30.3721580  69.8880681  29.4626709  29.4337581  70.0740365
  30.1051013  30.4505617  69.1546506  21.3333720  29.2417633  55.9307885
  22.2792825  29.1123841  55.9996303  20.9547965  28.5032295  56.4077313
  29.6444878  27.1632623  69.9338964  29.1283926  26.3791080  69.7468893
  30.5284826  26.8351340  70.0985484  27.3055605  20.9073639  65.8934777
  27.1080426  20.5988727  66.7778109  27.9155310  21.6335278  66.0232707
  35.3126939  31.4337587  69.0286718  36.0430328  31.1722875  69.5894421
  34.7033885  30.6966309  69.0688786  33.3942236  29.5745449  69.6261169
  32.6675400  29.4401414  69.0177660  32.9789523  29.8822278  70.4317887
  21.2172413  33.2935379  77.3908542  22.1375422  33.4713978  77.5848588
  21.1821996  32.3491424  77.2388241  19.5176637  27.1667609  55.8662770
  18.6108093  26.8700722  55.9425484  19.7952618  26.8697427  54.9997056
  10.4354578  28.4873973  66.3161817  10.1157362  27.6339281  66.0236191
   9.8888006  28.7022551  67.0719784  14.2134485  31.2036414  70.0331323
  14.4320495  32.1353521  70.0519357  14.6260259  30.8444388  70.8186127
  21.1338703  21.7104499  62.0207011  20.3239431  21.3651584  62.3962257
  21.8223120  21.4012043  62.6094623  23.0629251  20.7882546  63.6431308
  23.6160290  21.2077999  64.3021331  23.2999338  19.8618294  63.6854264
  19.0862351  26.7769619  79.4234072  18.9859077  27.7263976  79.3546163
  18.8683893  26.4487858  78.5510142  18.2875422  24.0254544  56.0074749
  19.1494586  24.3509443  56.2670567  18.4725766  23.2386040  55.4947815
  10.3042838  32.1076884  68.2854938   9.6106309  31.6930837  67.7724893
  11.0515829  32.1497421  67.6888357  26.4408058  22.8983071  63.1509972
  25.8606727  23.5567875  62.7688025  26.1743991  22.0760415  62.7397390
  24.8911625  22.2988129  65.3531293  25.3911403  22.4104663  64.5445611
  25.5347233  21.9949181  65.9932101  18.9493621  30.2066758  78.2399134
  18.4660702  31.0067118  78.4463023  19.0354560  30.2174703  77.2866578
  12.2179580  32.0395138  66.1620953  12.1950268  32.1382825  65.2102836
  12.5280217  32.8860289  66.4838119  14.8766958  34.0971293  70.2767567
  15.8310212  34.0655235  70.2097499  14.6779482  33.6361917  71.0917793
  15.4666340  32.6672409  72.8438365  16.2859229  33.1616488  72.8673202
  15.7403148  31.7504377  72.8155933  25.2232936  25.0583161  62.2066321
  24.3358791  25.3432812  61.9886515  25.6386926  24.8976925  61.3593597
  28.5747473  25.0829682  65.9220660  29.3507863  25.5726135  66.1945277
  27.8495607  25.5087736  66.3792529  31.0120031  25.7957301  66.9794600
  31.6064522  25.5553037  66.2687909  31.0846615  25.0764432  67.6068137
  13.2317187  39.6390912  67.2937765  13.0971655  38.8791313  66.7275763
  12.8149249  40.3631812  66.8266554  24.3676150  34.8227836  56.3014341
  25.0712000  35.0277838  56.9171996  23.6438799  35.3904598  56.5663424
  25.1973960  30.5737697  62.4216611  25.1409162  31.0306249  61.5824243
  25.7502303  29.8128382  62.2439453  29.0078766  26.3627429  63.2466730
  28.7515700  25.9624065  64.0774938  28.3831634  27.0771223  63.1216869
  33.3191104  29.1023502  65.7538022  32.7590662  29.1716692  66.5269584
  32.7134607  28.9264487  65.0337518  16.3886313  40.5360229  67.5056208
  16.2718697  41.4805662  67.4034898  15.5678759  40.2333791  67.8942007
  26.2762847  35.2610365  58.3512801  27.1108451  34.8291564  58.1690275
  26.1147190  35.0892379  59.2789695  25.9308740  31.7642478  59.7169140
  25.8757543  31.5986750  58.7757584  25.3054795  32.4718511  59.8731330
  10.7201254  27.0010543  73.5430562  11.3660118  26.4909497  74.0317787
  10.5118406  27.7379224  74.1173987  23.2454647  34.0691390  79.0422703
  24.1145806  34.2432043  78.6809338  22.7661398  34.8885807  78.9198432
  19.2404865  21.2650587  59.2954458  19.2283535  22.2092427  59.4522729
  20.1328287  21.0820733  59.0013920  17.4140827  41.1888491  70.7212136
  18.3168074  41.2212102  71.0378631  17.1878197  40.2588942  70.7358472
  19.1694429  39.9419478  67.3822215  18.2190060  39.9421339  67.2686587
  19.4726915  39.1952212  66.8658250  23.0556984  17.8593364  63.5500395
  22.2889380  17.3051851  63.6957077  23.4667689  17.9315233  64.4114547
  15.0598745  24.1478160  77.6405576  15.9230207  23.7914965  77.8508901
  14.4864156  23.8092055  78.3280981  31.7136829  45.7307444  68.3829502
  31.3755340  45.6148509  67.4950037  32.5826597  45.3298609  68.3630508
  32.1956612  46.8842296  74.3415708  32.1845252  46.4895094  73.4696211
  32.3577251  46.1508369  74.9349479  25.1188076  49.0794112  67.2110613
  25.9109368  48.7384937  66.7956913  25.3584726  49.1889087  68.1312767
  27.0778830  48.3403026  60.0827992  27.8509706  47.7932013  59.9440868
  27.4304229  49.2047275  60.2942454  28.9163873  49.6679408  73.2894892
  28.6253739  50.5725039  73.1741558  29.5520857  49.7095935  74.0038961
  29.8420080  47.0456256  69.8796251  30.4383652  46.8212279  69.1653214
  29.8995051  46.3041002  70.4821699  27.3266239  45.8054620  66.3181390
  26.4016736  45.6730834  66.5259081  27.5750653  46.5848839  66.8151332
  24.6875050  45.4487894  67.1525179  24.8167432  45.7022373  68.0664590
  24.0072502  46.0415602  66.8329834  28.8574538  56.1185144  63.2515653
  28.7798567  57.0692969  63.3304133  28.2536181  55.7731016  63.9090579
  31.3491767  43.2913009  75.9077020  30.5725102  43.8506929  75.8979884
  31.9882331  43.7769792  76.4291890  29.6038140  46.0998462  75.4694987
  30.3452824  46.6383506  75.1929810  28.8975125  46.7264751  75.6266539
  31.4324549  43.1800210  71.4400705  32.2785745  43.6039623  71.5835354
  31.3723187  42.5233834  72.1339268  34.5823995  40.8404578  73.0981879
  34.3384927  41.5946639  72.5616155  34.8583925  41.2189926  73.9329126
  34.1388687  39.9961011  68.6795717  33.2773166  40.2942265  68.9712454
  34.1651121  40.2131410  67.7476749  27.8474337  48.0874683  68.0249286
  28.4175694  48.5161952  67.3866770  28.4382449  47.8057268  68.7233471
  28.3399504  43.2538111  76.2710297  27.7098164  43.9354392  76.5045694
  28.2335591  43.1421192  75.3263435  23.6344476  42.9209907  67.1976221
  22.8443530  43.1767435  66.7216332  24.1255723  43.7358245  67.3028262
  25.5859221  43.2854486  64.1559698  24.7890385  43.3973180  64.6743193
  25.3584814  43.6241138  63.2900588  31.4164889  49.8099189  72.1042212
  31.4809321  50.2719596  72.9400384  30.7075813  49.1796554  72.2324522
  21.9182179  43.1740397  69.6291212  22.1690217  44.0587407  69.8948788
  22.4541727  42.9944999  68.8566304  27.6180246  37.5558877  78.6335548
  27.2247192  37.0025075  79.3083192  28.4346387  37.8669455  79.0242065
  24.5842304  48.9942735  62.5449118  25.0966825  49.7885985  62.6954682
  25.2365017  48.2969025  62.4782719  26.3937189  52.1108491  64.6271871
  26.5703817  53.0326456  64.4392855  27.1894022  51.7966910  65.0566251
  30.5348207  38.9716756  76.2255804  31.2757921  39.5723909  76.1460267
  30.7666130  38.2294393  75.6673847  25.6789545  44.1573123  74.5034034
  25.5643060  43.2558380  74.8041133  24.8234063  44.4036820  74.1518851
  32.7581383  52.0990863  76.1021535  32.3145237  51.3127242  75.7842439
  33.4198597  52.2870014  75.4365426  27.5168504  53.6286665  70.6282213
  28.0675929  53.5003728  69.8559207  26.6779980  53.9281554  70.2777106
  31.3135675  49.8937793  74.9726444  31.8464012  49.1326081  74.7425752
  30.7849756  49.6011444  75.7150599  34.4805370  34.9997859  70.5020086
  34.1369640  35.8899500  70.4259197  34.8484333  34.8099516  69.6389671
  22.5491221  47.3231389  63.3208688  23.3866443  47.7328397  63.1042396
  22.7269488  46.3830831  63.2908882  33.5601911  37.3702514  68.4669319
  33.0566706  37.3332649  67.6537125  33.8532517  38.2795256  68.5265976
  29.8044796  37.4541243  67.4735501  30.6697793  37.2584052  67.1141391
  29.8722305  37.2251595  68.4004858  27.4107116  39.6843451  64.8451868
  27.9850867  39.4618633  64.1125061  27.9978098  39.7532146  65.5980469
  29.7129783  36.5584700  63.5726937  29.0594196  36.2433717  62.9483552
  29.6710257  35.9360441  64.2986760  32.9467524  43.0466634  67.8974585
  32.0290085  43.2681581  67.7396273  33.3627667  43.1212944  67.0386292
  36.2793036  34.2591418  65.6037824  36.5851913  33.3988781  65.3163739
  37.0045641  34.8509038  65.4036818  22.5717392  44.6622104  63.9919422
  22.3741792  44.0691465  63.2670488  22.0164056  44.3574314  64.7095361
  30.5514116  44.5545211  66.1114015  30.6062725  43.6019047  66.0356491
  29.7405318  44.7104650  66.5955313  28.4906476  43.1722271  63.8704394
  27.6774341  43.4716441  64.2769586  28.9865470  42.7777959  64.5878876
  27.9820550  40.7440626  69.4865629  28.6219930  40.6029385  68.7888592
  27.1498081  40.4575139  69.1104231  25.0663618  44.1886138  61.6760374
  24.1361206  44.1270594  61.8930336  25.1621090  43.6662091  60.8797015
  24.9849167  40.7140951  64.2638615  25.2455984  41.6286284  64.1547776
  25.8066339  40.2465394  64.4135228  26.4574092  42.1278708  71.4337440
  27.1297145  41.9196070  70.7850089  25.6303879  41.9300794  70.9942672
  32.3599664  38.7540649  73.4503101  31.7127579  39.4530599  73.3567577
  33.1300679  39.1876793  73.8179349  35.7678462  49.0189501  76.5253654
  35.6163968  48.7900053  75.6083738  35.7583141  49.9760103  76.5384999
  26.8601589  45.4021311  72.1939877  26.7221387  44.6701550  72.7951416
  27.7706513  45.3130211  71.9124065  29.4883890  45.1141271  71.6823557
  30.1983508  44.4734463  71.6410175  29.4453198  45.3654165  72.6049738
  28.2012824  42.1006488  73.5019196  27.6650181  41.6497227  74.1540793
  27.6129532  42.2352397  72.7589661  26.4961367  58.8670538  67.3963855
  26.7357966  59.4989062  68.0742874  25.6530564  58.5158578  67.6829214
  27.6115083  41.5595140  56.0645660  26.7344549  41.4383941  55.7007907
  28.0872836  40.7681218  55.8124549  19.1317223  46.3472300  66.1587167
  19.8188263  46.0334030  65.5708182  18.9765352  47.2513664  65.8854419
  23.9351945  41.2362496  70.5872191  23.8510134  40.6288166  69.8522601
  23.1134652  41.7271514  70.5881687  31.0089229  54.6749660  69.8005359
  30.9359401  55.4804632  70.3124663  30.5666622  54.8741626  68.9753380
  30.6910628  41.8633443  65.6814070  30.3208415  41.3104483  66.3694976
  31.1869720  41.2591576  65.1289070  28.5199826  52.3230938  72.7769088
  29.2209286  52.9567421  72.9298483  28.0494941  52.6645669  72.0164728
  36.5494654  36.6885653  68.1021745  35.6357734  36.9189880  68.2703952
  36.9787755  36.7724097  68.9535777  32.3688685  45.6195356  77.0887676
  31.6929322  45.5189485  77.7590051  33.1916319  45.4634570  77.5523673
  24.1167544  51.8567293  69.7100191  24.7020981  51.1110981  69.8428095
  23.9192383  52.1671249  70.5936855  26.9706200  54.8918540  64.7262633
  26.3016575  55.3764668  64.2426674  26.8319069  55.1387761  65.6406012
  18.7085199  44.4272893  68.4304634  18.7469299  43.8936484  69.2241752
  18.2025492  43.9008098  67.8115611  31.1111468  56.9262284  71.3245292
  31.6629776  57.0893905  72.0894377  31.4517662  57.5166721  70.6525317
  26.0875961  39.2737433  71.9267177  26.1517288  40.1352264  71.5144574
  26.0243082  38.6611435  71.1939535  25.5628234  41.3460566  75.5740211
  26.1900273  40.9637643  76.1877735  24.7056153  41.1274768  75.9395903
  35.9622343  51.7523541  77.1793946  36.5062247  52.3653499  76.6848901
  35.3809187  52.3103120  77.6960959  22.3393777  43.1536995  61.5058566
  22.6347218  42.2447673  61.4525619  21.4381812  43.1324734  61.1839568
  25.8688024  41.2292992  67.4886114  25.1474609  41.8428959  67.3493588
  26.6581279  41.7650756  67.4102760  28.6714337  38.5647418  73.7626766
  29.1948739  38.8109715  74.5253075  28.4526671  39.3967453  73.3429903
  24.0681618  40.8351093  61.6297891  23.7394324  39.9548472  61.4472997
  24.4220989  40.7798761  62.5174280  27.1823441  41.1224063  61.9973368
  27.5219514  41.6509984  61.2751977  27.6295562  41.4604469  62.7731935
  29.8766882  39.5061113  71.4476437  29.5363703  38.7068926  71.8497116
  29.1705889  39.8062824  70.8753270  30.5283354  36.5910426  69.9003760
  31.3509423  36.1170904  69.7782650  30.7721418  37.3700909  70.4002446
  29.1691589  39.6198684  60.1966661  29.8899951  39.9979937  59.6930378
  28.5456893  40.3387561  60.3001639  28.0521933  43.2829546  67.7095738
  27.9066514  43.5969849  68.6020020  27.5747136  43.9014447  67.1566637
  29.9118316  40.2732094  67.7576628  29.8979885  39.3773188  67.4208926
  30.6290744  40.2802758  68.3914914  31.7644446  40.7069434  69.8029755
  31.5062224  41.6286505  69.8014086  31.2329487  40.3099869  70.4930219
  22.5267595  45.8234891  70.6483399  21.9821063  46.5994699  70.7803674
  23.4046945  46.1705695  70.4902521  29.3155212  39.1546475  63.0264198
  29.4371123  38.2263121  63.2255085  29.0257254  39.1685161  62.1142513
  32.1846402  36.8401385  66.1630918  32.2068099  36.9040718  65.2082897
  32.6014461  36.0005894  66.3571424  23.3133617  44.9504787  73.5413556
  22.5715353  45.0987422  74.1278187  22.9926361  45.2113053  72.6780306
  31.2577280  54.4920765  73.3393946  31.5664406  54.2469912  74.2116646
  32.0552762  54.6967404  72.8512816  23.7590231  52.8370216  65.5723951
  24.5848250  52.5373988  65.1922594  23.4084283  52.0677838  66.0213739
  21.9598836  50.7556542  66.5312884  21.1230744  50.3278716  66.3496886
  21.9322481  50.9488985  67.4683676  28.7996291  40.6678472  77.2354130
  28.8484447  41.5440595  76.8531900  29.3418805  40.1255865  76.6625774
  31.0295580  41.4209844  73.9900489  30.1598889  41.7143410  73.7183078
  31.2655060  42.0050289  74.7107753  26.0437904  46.7665785  62.1241154
  25.7983946  45.8628115  62.3221364  26.2133818  46.7682935  61.1820632
  33.7334614  37.6389461  71.5065909  34.2516557  38.3750488  71.1812398
  33.3789746  37.9453455  72.3412669  25.3133551  42.4994142  59.6227315
  24.6202796  42.5738497  58.9667351  25.0685303  41.7354486  60.1448832
  33.9847208  34.0589744  67.0266806  34.2648961  33.3912933  67.6527233
  34.7697815  34.2518839  66.5141470  38.1449359  36.2365556  65.8934777
  37.9474180  35.9280645  66.7778109  38.7549065  36.9627195  66.0232707
  32.0566167  48.6227297  77.3908542  32.9769177  48.8005896  77.5848588
  32.0215750  47.6783342  77.2388241  21.2748332  43.8165890  66.3161817
  20.9551117  42.9631198  66.0236191  20.7281760  44.0314468  67.0719784
  25.0528240  46.5328331  70.0331323  25.2714250  47.4645439  70.0519357
  25.4654014  46.1736306  70.8186127  31.9732458  37.0396417  62.0207011
  31.1633186  36.6943502  62.3962257  32.6616874  36.7303960  62.6094623
  33.9023006  36.1174463  63.6431308  34.4554044  36.5369917  64.3021331
  34.1393092  35.1910211  63.6854264  29.9256105  42.1061537  79.4234072
  29.8252832  43.0555894  79.3546163  29.7077647  41.7779776  78.5510142
  29.1269176  39.3546462  56.0074749  29.9888340  39.6801360  56.2670567
  29.3119521  38.5677958  55.4947815  21.1436592  47.4368802  68.2854938
  20.4500064  47.0222755  67.7724893  21.8909583  47.4789338  67.6888357
  29.7887375  45.5358676  78.2399134  29.3054457  46.3359036  78.4463023
  29.8748314  45.5466621  77.2866578  23.0573335  47.3687056  66.1620953
  23.0344023  47.4674743  65.2102836  23.3673971  48.2152206  66.4838119
  25.7160713  49.4263211  70.2767567  26.6703966  49.3947153  70.2097499
  25.5173236  48.9653834  71.0917793  26.3060095  47.9964327  72.8438365
  27.1252984  48.4908405  72.8673202  26.5796902  47.0796295  72.8155933
  24.0710941  54.9682830  67.2937765  23.9365409  54.2083231  66.7275763
  23.6543004  55.6923730  66.8266554  27.2280067  55.8652147  67.5056208
  27.1112451  56.8097580  67.4034898  26.4072514  55.5625709  67.8942007
  21.5595009  42.3302460  73.5430562  22.2053873  41.8201414  74.0317787
  21.3512160  43.0671142  74.1173987  34.0848401  49.3983308  79.0422703
  34.9539561  49.5723960  78.6809338  33.6055153  50.2177725  78.9198432
  30.0798619  36.5942505  59.2954458  30.0677289  37.5384345  59.4522729
  30.9722041  36.4112650  59.0013920  28.2534581  56.5180409  70.7212136
  29.1561828  56.5504019  71.0378631  28.0271951  55.5880860  70.7358472
  33.8950739  33.1885282  63.5500395  33.1283135  32.6343768  63.6957077
  34.3061444  33.2607150  64.4114547  25.8992500  39.4770078  77.6405576
  26.7623962  39.1206882  77.8508901  25.3257911  39.1383972  78.3280981
  38.3562259  68.9578582  70.6282213  38.9069684  68.8295646  69.8559207
  37.5173735  69.2573471  70.2777106  50.2583682  63.0730742  60.9445695
  49.4813124  62.7341901  60.5000857  50.9375163  63.0783365  60.2700660
  37.3355122  74.1962455  67.3963855  37.5751720  74.8280980  68.0742874
  36.4924318  73.8450495  67.6829214  29.5478954  59.7564811  68.4304634
  29.5863053  59.2228401  69.2241752  29.0419246  59.2300016  67.8115611
  46.8016097  67.0815459  77.1793946  47.3456001  67.6945417  76.6848901
  46.2202942  67.6395037  77.6960959  50.1244891  66.5411513  76.5155268
  49.3340435  66.5235652  75.9759767  49.8878246  67.0799807  77.2704304
  32.3988763  57.6594378  73.5430562  33.0447627  57.1493332  74.0317787
  32.1905915  58.3963060  74.1173987  44.9242156  64.7275226  79.0422703
  45.7933315  64.9015878  78.6809338  44.4448907  65.5469642  78.9198432
  39.0928336  71.8472327  70.7212136  39.9955583  71.8795937  71.0378631
  38.8665706  70.9172778  70.7358472  56.5834631  76.4363852  68.4467977
  57.2213041  76.3170599  67.7431317  56.4655474  77.3844696  68.5055930
  53.3924338  76.3891280  68.3829502  53.0542849  76.2732344  67.4950037
  54.2614106  75.9882445  68.3630508  53.8744121  77.5426131  74.3415708
  53.8632761  77.1478930  73.4696211  54.0364760  76.8092204  74.9349479
  50.5951382  80.3263243  73.2894892  50.3041248  81.2308874  73.1741558
  51.2308366  80.3679771  74.0038961  51.5207589  77.7040092  69.8796251
  52.1171161  77.4796114  69.1653214  51.5782560  76.9624837  70.4821699
  59.0609747  67.8112113  70.8848772  58.7293072  68.6807524  70.6609987
  58.4655361  67.4948397  71.5642803  55.5541267  80.0124659  70.2844685
  55.2541990  80.9149698  70.1760492  55.2092326  79.7456842  71.1365838
  50.5362047  86.7768979  63.2515653  50.4586076  87.7276804  63.3304133
  49.9323690  86.4314852  63.9090579  53.0279276  73.9496844  75.9077020
  52.2512611  74.5090765  75.8979884  53.6669840  74.4353627  76.4291890
  51.2825649  76.7582298  75.4694987  52.0240333  77.2967342  75.1929810
  50.5762634  77.3848587  75.6266539  56.7580988  78.9011438  74.0667148
  57.1664344  78.4593849  73.3221781  56.0358250  78.3264066  74.3201341
  53.1112058  73.8384045  71.4400705  53.9573254  74.2623459  71.5835354
  53.0510696  73.1817669  72.1339268  57.0809803  79.4612629  67.8219437
  56.4518665  79.6258343  67.1195505  56.6935465  79.8754238  68.5930401
  60.9599035  80.3967067  65.1763801  60.2750073  80.7765968  64.6260834
  61.0442884  81.0062393  65.9095749  56.2611504  71.4988413  73.0981879
  56.0172436  72.2530474  72.5616155  56.5371434  71.8773761  73.9329126
  58.2149967  78.0427026  71.7759144  58.4266862  78.6858786  71.0993526
  58.1679715  77.2089342  71.3081075  50.0187013  73.9121946  76.2710297
  49.3885673  74.5938227  76.5045694  49.9123100  73.8005028  75.3263435
  59.3295795  80.9198981  69.9481502  60.1513238  80.5179168  69.6664183
  59.3258197  80.8167215  70.8997618  53.0952398  80.4683025  72.1042212
  53.1596830  80.9303432  72.9400384  52.3863322  79.8380389  72.2324522
  67.4201788  77.2637730  66.2966473  66.6665496  76.6945128  66.1410478
  67.5549329  77.2300394  67.2437108  49.2967755  68.2142712  78.6335548
  48.9034701  67.6608910  79.3083192  50.1133896  68.5253290  79.0242065
  48.0724698  82.7692326  64.6271871  48.2491326  83.6910291  64.4392855
  48.8681531  82.4550746  65.0566251  52.2135716  69.6300591  76.2255804
  52.9545430  70.2307744  76.1460267  52.4453639  68.8878229  75.6673847
  47.3577054  74.8156958  74.5034034  47.2430569  73.9142215  74.8041133
  46.5021572  75.0620655  74.1518851  54.4368892  82.7574699  76.1021535
  53.9932746  81.9711077  75.7842439  55.0986106  82.9453849  75.4365426
  49.1956013  84.2870500  70.6282213  49.7463438  84.1587563  69.8559207
  48.3567489  84.5865389  70.2777106  56.5350130  83.0377498  74.1302936
  56.5168605  83.8586379  73.6383205  57.4570050  82.9131574  74.3553077
  52.9923184  80.5521628  74.9726444  53.5251521  79.7909916  74.7425752
  52.4637265  80.2595280  75.7150599  56.1592879  65.6581694  70.5020086
  55.8157149  66.5483336  70.4259197  56.5271842  65.4683352  69.6389671
  55.2389420  68.0286349  68.4669319  54.7354215  67.9916484  67.6537125
  55.5320026  68.9379092  68.5265976  61.0977436  78.4022660  60.9445695
  60.3206879  78.0633819  60.5000857  61.7768917  78.4075283  60.2700660
  59.3368743  77.8756641  67.6012303  58.6792417  78.5655902  67.6892431
  60.1409142  78.2653073  67.9446289  55.4096576  86.2085338  58.4076916
  54.7358275  86.5117035  59.0161873  55.7962398  87.0114418  58.0582373
  58.9135998  81.2107015  63.7795387  58.4598325  80.3697925  63.8360578
  58.2829965  81.8468413  64.1170167  57.3568937  83.0483512  64.7145205
  57.6491912  83.6088569  63.9957571  57.8667558  83.3412073  65.4698364
  52.3202562  83.8263863  65.8038658  52.2778741  84.0524709  64.8747190
  53.2365261  83.5927237  65.9524460  55.7668196  74.2947930  72.7019288
  56.1217584  74.5219403  73.5613753  56.4140327  74.6266307  72.0796543
  61.4965933  77.4166366  63.4068617  61.3583832  77.6067962  62.4789806
  61.1402152  78.1785749  63.8636668  61.5235313  79.4842893  68.4179888
  61.9571819  79.3918182  69.2662942  62.2366893  79.4600394  67.7799904
  50.4368363  80.7026892  65.6000621  51.2308962  80.2077212  65.3983196
  49.7260056  80.1744755  65.2368327  55.2563208  83.0844987  69.9512989
  55.3100230  83.6535924  70.7190705  54.3877989  83.2546872  69.5867026
  62.3850862  79.5266594  70.9512774  62.5786752  80.4312404  71.1972048
  62.2851480  79.0674013  71.7851359  54.0387173  69.4124484  73.4503101
  53.3915088  70.1114434  73.3567577  54.8088188  69.8460628  73.8179349
  57.4465971  79.6773337  76.5253654  57.2951477  79.4483888  75.6083738
  57.4370650  80.6343938  76.5384999  54.2151307  77.2505249  71.5099921
  55.1443367  77.4016409  71.3368888  53.7942337  77.3389270  70.6548567
  53.0139639  81.2755914  69.2798458  52.8750725  80.9074698  70.1524396
  52.2254235  81.7903553  69.1082416  53.6087791  86.3765010  60.6223995
  53.7839547  85.9053053  61.4369617  52.9220579  87.0030776  60.8505255
  54.5644854  80.6537517  66.6687296  54.2294687  80.6138286  67.5644946
  54.0648800  79.9882232  66.1957706  48.5389098  76.0605147  72.1939877
  48.4008896  75.3285385  72.7951416  49.4494022  75.9714047  71.9124065
  51.1671399  75.7725106  71.6823557  51.8771017  75.1318298  71.6410175
  51.1240707  76.0238001  72.6049738  59.1558178  82.7092459  74.6030136
  59.0970724  82.0251679  73.9360719  59.5577696  83.4511449  74.1510762
  48.1748876  89.5254373  67.3963855  48.4145475  90.1572897  68.0742874
  47.3318073  89.1742413  67.6829214  59.1575585  80.6732043  72.8344116
  58.2702364  80.3357965  72.9570515  59.7274136  79.9415074  73.0712881
  40.8104732  77.0056135  66.1587167  41.4975772  76.6917865  65.5708182
  40.6552861  77.9097500  65.8854419  52.6876738  85.3333495  69.8005359
  52.6146910  86.1388467  70.3124663  52.2454131  85.5325461  68.9753380
  52.4766518  84.5705266  63.3108180  51.6934040  85.1126946  63.4046405
  53.1759263  85.0879245  63.7102422  55.1475422  85.2320330  71.9563518
  55.8603394  85.8667794  71.8839419  54.6565450  85.3284196  71.1403519
  50.1987335  82.9814773  72.7769088  50.8996795  83.6151256  72.9298483
  49.7282450  83.3229505  72.0164728  58.2282163  67.3469488  68.1021745
  57.3145243  67.5773715  68.2703952  58.6575264  67.4307933  68.9535777
  54.9595795  85.5719074  64.7049809  55.1418190  84.7540730  65.1677561
  55.7828781  85.7886766  64.2674699  55.2937961  84.4987259  61.9664858
  55.8225727  83.9879713  61.3535020  55.5566180  84.1829789  62.8310391
  54.0476194  76.2779191  77.0887676  53.3716831  76.1773321  77.7590051
  54.8703828  76.1218405  77.5523673  45.7955053  82.5151128  69.7100191
  46.3808490  81.7694816  69.8428095  45.5979892  82.8255085  70.5936855
  48.6493709  85.5502375  64.7262633  47.9804084  86.0348503  64.2426674
  48.5106578  85.7971596  65.6406012  52.7898977  87.5846119  71.3245292
  53.3417285  87.7477740  72.0894377  53.1305171  88.1750557  70.6525317
  47.2415743  72.0044401  75.5740211  47.8687782  71.6221479  76.1877735
  46.3843662  71.7858603  75.9395903  57.6409852  82.4107376  77.1793946
  58.1849755  83.0237335  76.6848901  57.0596696  82.9686955  77.6960959
  55.9267364  85.5328094  68.3108974  55.8018504  84.7317834  67.8019919
  56.5846456  86.0274288  67.8222944  57.9902273  83.3337115  69.9388524
  57.0432608  83.2142466  69.8666851  58.3385046  82.4459613  70.0214786
  54.9948706  83.1289831  66.1392876  54.8473669  82.2006538  66.3200446
  55.8202200  83.1509921  65.6549952  58.5982828  83.9518389  67.2257749
  59.5229375  83.7461251  67.0882200  58.4298131  83.7034791  68.1347091
  53.4431955  71.3653270  69.8029755  53.1849733  72.2870340  69.8014086
  52.9116996  70.9683704  70.4930219  58.3878144  84.4704057  62.5819841
  58.5615022  83.9050479  61.8293693  58.8807035  85.2704952  62.3999330
  64.2417535  77.2340480  64.2010140  64.6848681  76.4847805  63.8029264
  63.3644046  77.2250616  63.8183872  59.3753317  83.7870821  59.6816739
  60.0704221  84.4077514  59.9004053  59.7176467  82.9366173  59.9569117
  44.9921126  75.6088622  73.5413556  44.2502862  75.7571258  74.1278187
  44.6713870  75.8696888  72.6780306  61.2744740  81.2370527  61.2104070
  61.7996064  81.5757800  60.4853390  61.1867092  80.3017542  61.0267204
  52.9364789  85.1504601  73.3393946  53.2451915  84.9053747  74.2116646
  53.7340271  85.3551239  72.8512816  52.9585401  87.3042510  65.5699323
  52.5190391  86.8118889  66.2632179  53.7093518  86.7615478  65.3291398
  45.4377740  83.4954051  65.5723951  46.2635759  83.1957823  65.1922594
  45.0871792  82.7261673  66.0213739  50.4059273  82.8480519  67.6421624
  49.7839282  82.1851224  67.3423852  51.0764140  82.8741651  66.9595272
  43.6386345  81.4140377  66.5312884  42.8018253  80.9862552  66.3496886
  43.6109990  81.6072821  67.4683676  50.4783800  71.3262307  77.2354130
  50.5271956  72.2024430  76.8531900  51.0206314  70.7839700  76.6625774
  60.9638646  81.8703431  76.5155268  60.1734190  81.8527569  75.9759767
  60.7272000  82.4091724  77.2704304  61.0836521  78.7195897  73.8287996
  61.1334526  78.5545904  74.7703519  60.9750444  77.8523156  73.4385877
  58.3740283  74.7026825  75.1447303  59.2750146  74.5633290  74.8531301
  58.4488258  74.8681280  76.0845480  52.7083089  72.0793680  73.9900489
  51.8386398  72.3727246  73.7183078  52.9442569  72.6634125  74.7107753
  62.5854718  81.1392838  74.0730018  62.2939526  81.5022819  74.9093479
  61.9726849  80.4259847  73.8943350  63.7850400  78.7045718  66.5932588
  64.6197291  79.1435522  66.7570148  63.9209529  78.2284371  65.7740834
  60.8341906  76.2625453  72.5410076  61.3096028  76.4553099  71.7328927
  59.9107471  76.3184639  72.2953459  55.4122122  68.2973297  71.5065909
  55.9304066  69.0334324  71.1812398  55.0577255  68.6037290  72.3412669
  57.5557954  70.2246796  70.9597782  56.9607887  70.5051809  70.2644271
  57.2707651  70.7140697  71.7314523  56.6865445  84.1769723  59.7200415
  57.6196118  84.1115285  59.9233290  56.5988658  85.0125990  59.2614947
  59.3153462  83.4935594  56.6804362  59.2367093  83.1595457  57.5740120
  60.1363128  83.9857361  56.6795835  62.0131653  76.3597333  69.8880681
  61.9807973  75.4213334  70.0740365  62.6232276  76.4381370  69.1546506
  67.8308203  77.4213340  69.0286718  68.5611591  77.1598628  69.5894421
  67.2215148  76.6842062  69.0688786  65.9123500  75.5621202  69.6261169
  65.1856663  75.4277167  69.0177660  65.4970787  75.8698031  70.4317887
  53.7353676  79.2811132  77.3908542  54.6556686  79.4589731  77.5848588
  53.7003259  78.3367177  77.2388241  51.6043614  72.7645372  79.4234072
  51.5040341  73.7139729  79.3546163  51.3865156  72.4363611  78.5510142
  51.4674884  76.1942511  78.2399134  50.9841966  76.9942871  78.4463023
  51.5535823  76.2050456  77.2866578  47.3948222  80.0847046  70.2767567
  48.3491475  80.0530988  70.2097499  47.1960745  79.6237670  71.0917793
  47.9847604  78.6548162  72.8438365  48.8040493  79.1492241  72.8673202
  48.2584411  77.7380130  72.8155933  45.7498450  85.6266665  67.2937765
  45.6152918  84.8667066  66.7275763  45.3330513  86.3507565  66.8266554
  48.9067576  86.5235982  67.5056208  48.7899960  87.4681415  67.4034898
  48.0860023  86.2209544  67.8942007  58.7944111  81.2486118  58.3512801
  59.6289715  80.8167317  58.1690275  58.6328454  81.0768132  59.2789695
  55.7635910  80.0567143  79.0422703  56.6327070  80.2307796  78.6809338
  55.2842662  80.8761560  78.9198432  49.9322090  87.1764244  70.7212136
  50.8349337  87.2087855  71.0378631  49.7059460  86.2464695  70.7358472
  51.6875692  85.9295231  67.3822215  50.7371323  85.9297092  67.2686587
  51.9908179  85.1827965  66.8658250  47.5780009  70.1353913  77.6405576
  48.4411471  69.7790718  77.8508901  47.0045420  69.7967808  78.3280981
  67.4228386  91.7655769  68.4467977  68.0606796  91.6462517  67.7431317
  67.3049229  92.7136613  68.5055930  64.2318092  91.7183197  68.3829502
  63.8936604  91.6024262  67.4950037  65.1007860  91.3174362  68.3630508
  60.0904908  93.5718674  64.3726393  59.5269773  93.4808611  63.6042681
  59.9757303  92.7518578  64.8528886  64.7137875  92.8718049  74.3415708
  64.7026516  92.4770847  73.4696211  64.8758515  92.1384122  74.9349479
  57.6369340  95.0669865  67.2110613  58.4290632  94.7260690  66.7956913
  57.8765990  95.1764840  68.1312767  65.6704467  97.2389641  59.6840858
  65.0192446  97.8243722  59.2974872  66.4648829  97.7695836  59.7435895
  59.5960094  94.3278779  60.0827992  60.3690970  93.7807766  59.9440868
  59.9485493  95.1923028  60.2942454  61.4345136  95.6555161  73.2894892
  61.1435002  96.5600792  73.1741558  62.0702121  95.6971688  74.0038961
  62.3601343  93.0332009  69.8796251  62.9564915  92.8088032  69.1653214
  62.4176315  92.2916755  70.4821699  61.9326372  90.4871445  57.7146442
  62.1851892  89.9652966  56.9529905  60.9950931  90.3237590  57.8173126
  66.9769654  89.4907223  65.5221185  67.7632744  89.0726646  65.1711602
  67.2408359  90.3953315  65.6902834  67.1479732  94.9280073  60.2209842
  66.5125565  95.0014700  60.9330747  66.8177138  95.5173672  59.5428921
  72.3778082  89.4282456  66.4254164  73.1103253  88.8581673  66.6591993
  71.6217437  89.0404057  66.8660669  61.6522660  92.3899551  59.9170817
  61.5358918  91.7144454  60.5851901  61.7624920  91.9031925  59.1002970
  63.9954201  91.8509698  63.6217506  63.6312408  91.3240319  64.3330428
  64.8521317  91.4608167  63.4483992  69.9003502  83.1404030  70.8848772
  69.5686827  84.0099441  70.6609987  69.3049115  82.8240314  71.5642803
  63.6359688  86.8799597  58.6178855  63.8034091  87.7479834  58.9849326
  63.4456857  87.0426879  57.6940144  66.3935021  95.3416576  70.2844685
  66.0935744  96.2441615  70.1760492  66.0486081  95.0748760  71.1365838
  59.8447503  91.7930373  66.3181390  58.9197999  91.6606587  66.5259081
  60.0931916  92.5724592  66.8151332  69.7932165  87.8599117  67.9642123
  68.8849043  87.7914525  67.6700884  69.7419761  88.3371061  68.7923948
  63.6148909  89.3357255  59.6025522  63.4948534  89.7814306  60.4411002
  62.9201497  89.6842573  59.0439060  57.2056314  91.4363647  67.1525179
  57.3348695  91.6898126  68.0664590  56.5253765  92.0291355  66.8329834
  61.3755801 102.1060897  63.2515653  61.2979831 103.0568722  63.3304133
  60.7717445 101.7606769  63.9090579  63.8673031  89.2788762  75.9077020
  63.0906365  89.8382682  75.8979884  64.5063594  89.7645545  76.4291890
  71.6593812  86.0615555  69.7419996  71.0168192  86.3548088  69.0959791
  71.1548740  85.9468475  70.5473193  69.3133975  89.8078728  60.4305856
  70.2251831  90.0406115  60.2553553  68.8043622  90.3915772  59.8680934
  62.1219403  92.0874216  75.4694987  62.8634088  92.6259259  75.1929810
  61.4156389  92.7140504  75.6266539  67.5974743  94.2303356  74.0667148
  68.0058099  93.7885766  73.3221781  66.8752004  93.6555983  74.3201341
  63.9505813  89.1675963  71.4400705  64.7967008  89.5915376  71.5835354
  63.8904451  88.5109587  72.1339268  67.9203558  94.7904547  67.8219437
  67.2912420  94.9550261  67.1195505  67.5329220  95.2046156  68.5930401
  71.7992789  95.7258984  65.1763801  71.1143828  96.1057886  64.6260834
  71.8836639  96.3354311  65.9095749  67.1005258  86.8280331  73.0981879
  66.8566190  87.5822392  72.5616155  67.3765189  87.2065679  73.9329126
  69.0543721  93.3718943  71.7759144  69.2660616  94.0150703  71.0993526
  69.0073469  92.5381260  71.3081075  66.6569950  85.9836764  68.6795717
  65.7954429  86.2818018  68.9712454  66.6832385  86.2007163  67.7476749
  63.4731519  94.5278955  65.0869522  63.9369865  94.8066658  64.2974145
  63.2088318  93.6262399  64.9042613  60.3655600  94.0750436  68.0249286
  60.9356958  94.5037705  67.3866770  60.9563712  93.7933021  68.7233471
  62.4100405  90.6502107  61.8959087  63.1124449  91.1023151  62.3633014
  62.0781034  90.0085926  62.5238981  60.8580767  89.2413864  76.2710297
  60.2279428  89.9230145  76.5045694  60.7516855  89.1296945  75.3263435
  56.1525739  88.9085660  67.1976221  55.3624793  89.1643188  66.7216332
  56.6436987  89.7233998  67.3028262  70.1689549  96.2490899  69.9481502
  70.9906993  95.8471086  69.6664183  70.1651952  96.1459133  70.8997618
  58.1040485  89.2730239  64.1559698  57.3071648  89.3848933  64.6743193
  57.8766077  89.6116891  63.2900588  63.9346152  95.7974942  72.1042212
  63.9990585  96.2595349  72.9400384  63.2257076  95.1672307  72.2324522
  54.4363442  89.1616150  69.6291212  54.6871481  90.0463160  69.8948788
  54.9722991  88.9820752  68.8566304  78.2595542  92.5929647  66.2966473
  77.5059250  92.0237045  66.1410478  78.3943083  92.5592312  67.2437108
  63.6494170  97.4643050  61.9721193  63.5139845  98.3094585  62.4006040
  64.1903983  97.6662327  61.2087126  60.1361510  83.5434630  78.6335548
  59.7428455  82.9900828  79.3083192  60.9527650  83.8545208  79.0242065
  57.1023567  94.9818488  62.5449118  57.6148088  95.7761738  62.6954682
  57.7546280  94.2844778  62.4782719  58.9118452  98.0984244  64.6271871
  59.0885081  99.0202209  64.4392855  59.7075286  97.7842663  65.0566251
  63.0529471  84.9592509  76.2255804  63.7939184  85.5599662  76.1460267
  63.2847394  84.2170146  75.6673847  58.1970809  90.1448876  74.5034034
  58.0824324  89.2434133  74.8041133  57.3415326  90.3912573  74.1518851
  65.2762646  98.0866616  76.1021535  64.8326501  97.3002995  75.7842439
  65.9379860  98.2745767  75.4365426  60.0349768  99.6162418  70.6282213
  60.5857193  99.4879481  69.8559207  59.1961244  99.9157307  70.2777106
  67.3743885  98.3669416  74.1302936  67.3562360  99.1878297  73.6383205
  68.2963805  98.2423491  74.3553077  63.8316939  95.8813546  74.9726444
  64.3645275  95.1201834  74.7425752  63.3031020  95.5887197  75.7150599
  66.9986634  80.9873612  70.5020086  66.6550903  81.8775253  70.4259197
  67.3665596  80.7975269  69.6389671  55.0672484  93.3107142  63.3208688
  55.9047706  93.7204150  63.1042396  55.2450752  92.3706584  63.2908882
  66.9636916  90.9782223  59.0092521  66.4483540  91.7486827  59.2480909
  66.6914225  90.3047359  59.6325583  64.5484027  85.8231923  64.0677760
  63.6925624  85.4338774  63.8883398  64.9610979  85.9023884  63.2077545
  66.0783174  83.3578267  68.4669319  65.5747970  83.3208402  67.6537125
  66.3713781  84.2671009  68.5265976  62.3226060  83.4416996  67.4735501
  63.1879057  83.2459805  67.1141391  62.3903569  83.2127348  68.4004858
  71.9371191  93.7314577  60.9445695  71.1600633  93.3925737  60.5000857
  72.6162671  93.7367200  60.2700660  66.7523220  88.8509315  60.8352302
  66.4473355  89.1655464  61.6862446  67.7053662  88.9290735  60.8779635
  65.1969651  95.0099538  62.4845256  64.6691013  94.2752298  62.1718494
  64.6957154  95.7874214  62.2385225  70.1762497  93.2048559  67.6012303
  69.5186172  93.8947820  67.6892431  70.9802897  93.5944991  67.9446289
  59.9288379  85.6719204  64.8451868  60.5032131  85.4494386  64.1125061
  60.5159361  85.7407899  65.5980469  68.9867956  91.5592931  65.6516244
  69.4999838  92.1922923  66.1537954  69.6369180  90.9594127  65.2859604
  60.2557966  87.7023665  58.8647753  59.4195278  88.0398352  59.1857028
  60.1162736  87.5672645  57.9274890  62.2311047  82.5460453  63.5726937
  61.5775459  82.2309470  62.9483552  62.1891521  81.9236194  64.2986760
  63.3422252  92.8279748  55.4880229  62.4349313  92.5969002  55.6871378
  63.8393284  92.0317368  55.6754211  66.2490330 101.5377256  58.4076916
  65.5752029 101.8408952  59.0161873  66.6356152 102.3406336  58.0582373
  65.4648787  89.0342387  67.8974585  64.5471348  89.2557334  67.7396273
  65.8808931  89.1088697  67.0386292  66.2483835  90.4333802  63.0277265
  66.9955654  90.9455200  62.7184387  66.5175424  90.1117855  63.8881659
  64.5210485  92.9292343  60.0104220  63.6121704  92.6451376  60.1076689
  64.5505569  93.3491422  59.1507526  69.7529752  96.5398933  63.7795387
  69.2992080  95.6989843  63.8360578  69.1223719  97.1760331  64.1170167
  68.6962672  87.4690919  65.0096055  67.9585429  86.9568305  65.3406297
  68.9489446  87.0291300  64.1979331  68.1962692  98.3775429  64.7145205
  68.4885666  98.9380487  63.9957571  68.7061312  98.6703990  65.4698364
  68.7974299  80.2467171  65.6037824  69.1033176  79.3864534  65.3163739
  69.5226904  80.8384791  65.4036818  55.0898655  90.6497857  63.9919422
  54.8923055  90.0567218  63.2670488  54.5345319  90.3450068  64.7095361
  63.0695379  90.5420964  66.1114015  63.1243989  89.5894800  66.0356491
  62.2586581  90.6980403  66.5955313  64.2186573  94.4701087  57.3492298
  63.7806003  93.7536946  56.8897935  64.9597014  94.6977202  56.7877389
  61.0087739  89.1598024  63.8704394  60.1955605  89.4592194  64.2769586
  61.5046733  88.7653712  64.5878876  63.1596317  99.1555780  65.8038658
  63.1172496  99.3816627  64.8747190  64.0759016  98.9219155  65.9524460
  66.6061951  89.6239848  72.7019288  66.9611338  89.8511321  73.5613753
  67.2534082  89.9558225  72.0796543  72.3359688  92.7458284  63.4068617
  72.1977586  92.9359880  62.4789806  71.9795906  93.5077667  63.8636668
  60.5001814  86.7316379  69.4865629  61.1401193  86.5905138  68.7888592
  59.6679344  86.4450892  69.1104231  72.3629067  94.8134811  68.4179888
  72.7965574  94.7210100  69.2662942  73.0760648  94.7892311  67.7799904
  61.2762118  96.0318810  65.6000621  62.0702716  95.5369130  65.3983196
  60.5653810  95.5036673  65.2368327  66.0956962  98.4136905  69.9512989
  66.1493984  98.9827841  70.7190705  65.2271743  98.5838790  69.5867026
  57.5844881  90.1761891  61.6760374  56.6542469  90.1146347  61.8930336
  57.6802353  89.6537844  60.8797015  57.5030430  86.7016704  64.2638615
  57.7637247  87.6162037  64.1547776  58.3247602  86.2341147  64.4135228
  58.9755355  88.1154461  71.4337440  59.6478409  87.9071823  70.7850089
  58.1485142  87.9176547  70.9942672  73.2244617  94.8558512  70.9512774
  73.4180507  95.7604322  71.1972048  73.1245235  94.3965931  71.7851359
  64.8780928  84.7416402  73.4503101  64.2308843  85.4406352  73.3567577
  65.6481943  85.1752546  73.8179349  68.2859725  95.0065254  76.5253654
  68.1345232  94.7775806  75.6083738  68.2764405  95.9635856  76.5384999
  65.0545062  92.5797167  71.5099921  65.9837122  92.7308327  71.3368888
  64.6336092  92.6681188  70.6548567  63.8533394  96.6047831  69.2798458
  63.7144479  96.2366616  70.1524396  63.0647990  97.1195471  69.1082416
  64.4481546 101.7056928  60.6223995  64.6233301 101.2344971  61.4369617
  63.7614334 102.3322694  60.8505255  65.4038609  95.9829434  66.6687296
  65.0688441  95.9430204  67.5644946  64.9042554  95.3174150  66.1957706
  59.3782853  91.3897064  72.1939877  59.2402651  90.6577303  72.7951416
  60.2887776  91.3005964  71.9124065  68.3397800  93.3285469  56.9424356
  67.7226971  92.6032297  56.8457408  67.8714289  94.0894829  56.5991430
  62.0065153  91.1017024  71.6823557  62.7164772  90.4610216  71.6410175
  61.9634462  91.3529918  72.6049738  69.9951932  98.0384377  74.6030136
  69.9364478  97.3543597  73.9360719  70.3971450  98.7803367  74.1510762
  60.7194087  88.0882241  73.5019196  60.1831444  87.6372980  74.1540793
  60.1310796  88.2228150  72.7589661  59.0142631 104.8546291  67.3963855
  59.2539229 105.4864815  68.0742874  58.1711827 104.5034331  67.6829214
  60.1296346  87.5470893  56.0645660  59.2525813  87.4259694  55.7007907
  60.6054099  86.7556971  55.8124549  69.9969339  96.0023961  72.8344116
  69.1096118  95.6649883  72.9570515  70.5667890  95.2706992  73.0712881
  51.6498486  92.3348053  66.1587167  52.3369526  92.0209783  65.5708182
  51.4946615  93.2389417  65.8854419  56.4533209  87.2238249  70.5872191
  56.3691397  86.6163919  69.8522601  55.6315915  87.7147267  70.5881687
  63.5270493 100.6625413  69.8005359  63.4540664 101.4680385  70.3124663
  63.0847886 100.8617379  68.9753380  63.3160272  99.8997183  63.3108180
  62.5327794 100.4418863  63.4046405  64.0153018 100.4171163  63.7102422
  66.6256922  85.7091813  65.9542386  67.1225622  84.9561775  65.6343456
  65.8543904  85.7456129  65.3885595  74.4786680  91.4132178  67.5960677
  74.4676556  92.2956894  67.2254610  73.6104059  91.0603729  67.4015214
  65.9869176 100.5612247  71.9563518  66.6997148 101.1959712  71.8839419
  65.4959205 100.6576113  71.1403519  67.7086703  94.4663500  63.5280809
  66.7742982  94.5864962  63.3585514  67.8863372  93.5635967  63.2640819
  63.2091891  87.8509196  65.6814070  62.8389679  87.2980236  66.3694976
  63.7050984  87.2467329  65.1289070  71.0959255  90.3080819  64.0630843
  71.5619707  91.1408811  63.9891146  71.5466755  89.8425801  64.7676102
  61.0381090  98.3106691  72.7769088  61.7390549  98.9443174  72.9298483
  60.5676205  98.6521422  72.0164728  69.1635486  96.6524640  61.0616995
  69.4395330  96.5381235  61.9710870  68.2939984  96.2542125  61.0229169
  69.0675917  82.6761406  68.1021745  68.1538997  82.9065633  68.2703952
  69.4969019  82.7599850  68.9535777  68.8382376  90.8651298  70.6021639
  68.1853826  91.1127206  69.9474092  69.2162756  90.0515436  70.2684116
  65.7989550 100.9010991  64.7049809  65.9811944 100.0832647  65.1677561
  66.6222536 101.1178684  64.2674699  66.1331715  99.8279176  61.9664858
  66.6619482  99.3171631  61.3535020  66.3959935  99.5121707  62.8310391
  64.8869949  91.6071109  77.0887676  64.2110586  91.5065238  77.7590051
  65.7097583  91.4510323  77.5523673  56.6348808  97.8443046  69.7100191
  57.2202245  97.0986734  69.8428095  56.4373646  98.1547002  70.5936855
  59.4887463 100.8794293  64.7262633  58.8197838 101.3640421  64.2426674
  59.3500333 101.1263514  65.6406012  51.2266463  90.4148646  68.4304634
  51.2650562  89.8812237  69.2241752  50.7206755  89.8883851  67.8115611
  63.6292732 102.9138037  71.3245292  64.1811040 103.0769658  72.0894377
  63.9698925 103.5042474  70.6525317  58.6057225  85.2613186  71.9267177
  58.6698551  86.1228017  71.5144574  58.5424345  84.6487188  71.1939535
  58.0809497  87.3336319  75.5740211  58.7081536  86.9513396  76.1877735
  57.2237416  87.1150521  75.9395903  68.4803606  97.7399294  77.1793946
  69.0243510  98.3529252  76.6848901  67.8990451  98.2978873  77.6960959
  54.8575040  89.1412748  61.5058566  55.1528481  88.2323426  61.4525619
  53.9563076  89.1200488  61.1839568  66.7661119 100.8620012  68.3108974
  66.6412258 100.0609752  67.8019919  67.4240210 101.3566206  67.8222944
  58.3869287  87.2168745  67.4886114  57.6655873  87.8304712  67.3493588
  59.1762543  87.7526509  67.4102760  68.8296027  98.6629032  69.9388524
  67.8826363  98.5434383  69.8666851  69.1778800  97.7751530  70.0214786
  61.1895601  84.5523171  73.7626766  61.7130003  84.7985468  74.5253075
  60.9707934  85.3843206  73.3429903  56.5862882  86.8226846  61.6297891
  56.2575588  85.9424225  61.4472997  56.9402252  86.7674514  62.5174280
  65.8342461  98.4581748  66.1392876  65.6867423  97.5298456  66.3200446
  66.6595954  98.4801839  65.6549952  59.7004705  87.1099816  61.9973368
  60.0400777  87.6385737  61.2751977  60.1476825  87.4480222  62.7731935
  69.4376582  99.2810307  67.2257749  70.3623130  99.0753169  67.0882200
  69.2691886  99.0326708  68.1347091  62.3948146  85.4936866  71.4476437
  62.0544966  84.6944679  71.8497116  61.6887152  85.7938577  70.8753270
  63.0464618  82.5786179  69.9003760  63.8690687  82.1046657  69.7782650
  63.2902681  83.3576662  70.4002446  61.6872852  85.6074437  60.1966661
  62.4081215  85.9855690  59.6930378  61.0638156  86.3263314  60.3001639
  65.8303975  86.3119586  61.1324994  66.0467589  87.1944224  60.8313822
  65.3498042  85.9205800  60.4030636  60.5703196  89.2705299  67.7095738
  60.4247777  89.5845602  68.6020020  60.0928400  89.8890200  67.1566637
  62.4299579  86.2607847  67.7576628  62.4161148  85.3648941  67.4208926
  63.1472007  86.2678511  68.3914914  64.2825710  86.6945188  69.8029755
  64.0243488  87.6162258  69.8014086  63.7510750  86.2975622  70.4930219
  69.2271899  99.7995975  62.5819841  69.4008776  99.2342397  61.8293693
  69.7200790 100.5996870  62.3999330  55.0448858  91.8110644  70.6483399
  54.5002327  92.5870452  70.7803674  55.9228208  92.1581448  70.4902521
  61.8336475  85.1422228  63.0264198  61.9552386  84.2138874  63.2255085
  61.5438518  85.1560914  62.1142513  64.7027666  82.8277138  66.1630918
  64.7249362  82.8916471  65.2082897  65.1195725  81.9881647  66.3571424
  75.0811290  92.5632398  64.2010140  75.5242436  91.8139723  63.8029264
  74.2037800  92.5542534  63.8183872  70.2147071  99.1162739  59.6816739
  70.9097976  99.7369432  59.9004053  70.5570221  98.2658090  59.9569117
  55.8314880  90.9380540  73.5413556  55.0896616  91.0863175  74.1278187
  55.5107625  91.1988806  72.6780306  72.1138494  96.5662445  61.2104070
  72.6389818  96.9049717  60.4853390  72.0260847  95.6309460  61.0267204
  63.7758543 100.4796518  73.3393946  64.0845669 100.2345665  74.2116646
  64.5734025 100.6843157  72.8512816  63.7979155 102.6334428  65.5699323
  63.3584145 102.1410807  66.2632179  64.5487272 102.0907396  65.3291398
  56.2771494  98.8245969  65.5723951  57.1029514  98.5249741  65.1922594
  55.9265546  98.0553591  66.0213739  61.2453027  98.1772437  67.6421624
  60.6233036  97.5143142  67.3423852  61.9157894  98.2033569  66.9595272
  54.4780099  96.7432295  66.5312884  53.6412007  96.3154470  66.3496886
  54.4503745  96.9364739  67.4683676  61.3177555  86.6554225  77.2354130
  61.3665710  87.5316348  76.8531900  61.8600069  86.1131618  76.6625774
  71.8032400  97.1995348  76.5155268  71.0127944  97.1819487  75.9759767
  71.5665755  97.7383642  77.2704304  71.9230275  94.0487815  73.8287996
  71.9728280  93.8837822  74.7703519  71.8144199  93.1815074  73.4385877
  60.8066534  96.7276360  61.1180085  60.9554654  97.4111825  60.4646758
  61.6132978  96.7081450  61.6329541  69.2134038  90.0318743  75.1447303
  70.1143901  89.8925207  74.8531301  69.2882012  90.1973197  76.0845480
  63.5476843  87.4085597  73.9900489  62.6780153  87.7019163  73.7183078
  63.7836323  87.9926042  74.7107753  73.4248472  96.4684756  74.0730018
  73.1333281  96.8314737  74.9093479  72.8120604  95.7551764  73.8943350
  74.6244155  94.0337636  66.5932588  75.4591046  94.4727440  66.7570148
  74.7603283  93.5576289  65.7740834  71.6735660  91.5917371  72.5410076
  72.1489782  91.7845017  71.7328927  70.7501226  91.6476557  72.2953459
  58.5619167  92.7541538  62.1241154  58.3165209  91.8503868  62.3221364
  58.7315082  92.7558688  61.1820632  66.2515877  83.6265214  71.5065909
  66.7697821  84.3626241  71.1812398  65.8971010  83.9329208  72.3412669
  57.8314815  88.4869895  59.6227315  57.1384060  88.5614250  58.9667351
  57.5866567  87.7230239  60.1448832  66.5028471  80.0465497  67.0266806
  66.7830225  79.3788686  67.6527233  67.2879078  80.2394592  66.5141470
  64.3061940  99.2224491  58.5891832  63.7335907  99.8414678  58.1362304
  64.8794733  99.7723852  59.1231754  70.3737329  88.4683131  70.7738381
  71.3254752  88.5681228  70.7950605  70.2040780  87.6761399  71.2836466
  68.3951709  85.5538714  70.9597782  67.8001641  85.8343727  70.2644271
  68.1101406  86.0432615  71.7314523  67.5259199  99.5061641  59.7200415
  68.4589873  99.4407203  59.9233290  67.4382412 100.3417908  59.2614947
  70.1547216  98.8227511  56.6804362  70.0760848  98.4887375  57.5740120
  70.9756883  99.3149279  56.6795835  72.8525407  91.6889251  69.8880681
  72.8201727  90.7505251  70.0740365  73.4626031  91.7673287  69.1546506
  64.6908738  90.5585303  55.9307885  65.6367843  90.4291512  55.9996303
  64.3122983  89.8199965  56.4077313  73.0019896  88.4800294  69.9338964
  72.4858944  87.6958751  69.7468893  73.8859844  88.1519011  70.0985484
  70.6630623  82.2241310  65.8934777  70.4655444  81.9156398  66.7778109
  71.2730328  82.9502948  66.0232707  78.6701957  92.7505257  69.0286718
  79.4005346  92.4890545  69.5894421  78.0608903  92.0133979  69.0688786
  76.7517254  90.8913120  69.6261169  76.0250418  90.7569085  69.0177660
  76.3364541  91.1989949  70.4317887  64.5747431  94.6103050  77.3908542
  65.4950440  94.7881649  77.5848588  64.5397014  93.6659095  77.2388241
  62.8751655  88.4835280  55.8662770  61.9683111  88.1868393  55.9425484
  63.1527636  88.1865098  54.9997056  53.7929596  89.8041643  66.3161817
  53.4732380  88.9506951  66.0236191  53.2463024  90.0190221  67.0719784
  57.5709503  92.5204084  70.0331323  57.7895513  93.4521192  70.0519357
  57.9835277  92.1612059  70.8186127  64.4913721  83.0272170  62.0207011
  63.6814449  82.6819255  62.3962257  65.1798138  82.7179713  62.6094623
  66.4204269  82.1050216  63.6431308  66.9735308  82.5245670  64.3021331
  66.6574356  81.1785964  63.6854264  62.4437369  88.0937290  79.4234072
  62.3434095  89.0431647  79.3546163  62.2258911  87.7655529  78.5510142
  61.6450440  85.3422215  56.0074749  62.5069604  85.6677113  56.2670567
  61.8300784  84.5553711  55.4947815  53.6617856  93.4244555  68.2854938
  52.9681327  93.0098508  67.7724893  54.4090847  93.4665091  67.6888357
  69.7983076  84.2150742  63.1509972  69.2181745  84.8735546  62.7688025
  69.5319009  83.3928086  62.7397390  68.2486643  83.6155799  65.3531293
  68.7486421  83.7272334  64.5445611  68.8922251  83.3116852  65.9932101
  62.3068639  91.5234429  78.2399134  61.8235720  92.3234789  78.4463023
  62.3929578  91.5342374  77.2866578  55.5754598  93.3562809  66.1620953
  55.5525286  93.4550496  65.2102836  55.8855235  94.2027959  66.4838119
  58.2341976  95.4138964  70.2767567  59.1885230  95.3822906  70.2097499
  58.0354500  94.9529587  71.0917793  58.8241358  93.9840080  72.8438365
  59.6434247  94.4784158  72.8673202  59.0978166  93.0672048  72.8155933
  68.5807954  86.3750832  62.2066321  67.6933809  86.6600483  61.9886515
  68.9961943  86.2144595  61.3593597  71.9322491  86.3997353  65.9220660
  72.7082881  86.8893805  66.1945277  71.2070625  86.8255407  66.3792529
  74.3695049  87.1124972  66.9794600  74.9639540  86.8720708  66.2687909
  74.4421633  86.3932103  67.6068137  56.5892205 100.9558583  67.2937765
  56.4546673 100.1958984  66.7275763  56.1724267 101.6799483  66.8266554
  67.7251168  96.1395507  56.3014341  68.4287018  96.3445509  56.9171996
  67.0013817  96.7072268  56.5663424  68.5548978  91.8905368  62.4216611
  68.4984180  92.3473919  61.5824243  69.1077321  91.1296052  62.2439453
  72.3653784  87.6795100  63.2466730  72.1090718  87.2791735  64.0774938
  71.7406652  88.3938894  63.1216869  76.6766122  90.4191173  65.7538022
  76.1165680  90.4884362  66.5269584  76.0709625  90.2432158  65.0337518
  59.7461331 101.8527900  67.5056208  59.6293715 102.7973333  67.4034898
  58.9253777 101.5501462  67.8942007  69.6337865  96.5778036  58.3512801
  70.4683469  96.1459234  58.1690275  69.4722208  96.4060049  59.2789695
  69.2883757  93.0810149  59.7169140  69.2332561  92.9154421  58.7757584
  68.6629813  93.7886182  59.8731330  54.0776272  88.3178213  73.5430562
  54.7235136  87.8077167  74.0317787  53.8693424  89.0546895  74.1173987
  66.6029665  95.3859061  79.0422703  67.4720824  95.5599713  78.6809338
  66.1236416  96.2053478  78.9198432  62.5979883  82.5818258  59.2954458
  62.5858553  83.5260098  59.4522729  63.4903305  82.3988404  59.0013920
  60.7715845 102.5056162  70.7212136  61.6743092 102.5379772  71.0378631
  60.5453215 101.5756613  70.7358472  62.5269447 101.2587149  67.3822215
  61.5765078 101.2589010  67.2686587  62.8301933 100.5119883  66.8658250
  66.4132002  79.1761035  63.5500395  65.6464398  78.6219521  63.6957077
  66.8242707  79.2482904  64.4114547  58.4173763  85.4645831  77.6405576
  59.2805225  85.1082635  77.8508901  57.8439174  85.1259725  78.3280981
  78.2622140 107.0947687  68.4467977  78.9000550 106.9754434  67.7431317
  78.1442983 108.0428531  68.5055930  75.0711847 107.0475115  68.3829502
  74.7330358 106.9316180  67.4950037  75.9401615 106.6466280  68.3630508
  70.9298662 108.9010591  64.3726393  70.3663527 108.8100528  63.6042681
  70.8151057 108.0810496  64.8528886  75.5531630 108.2009967  74.3415708
  75.5420270 107.8062765  73.4696211  75.7152269 107.4676039  74.9349479
  68.4763094 110.3961783  67.2110613  69.2684386 110.0552608  66.7956913
  68.7159744 110.5056758  68.1312767  70.4353848 109.6570696  60.0827992
  71.2084724 109.1099683  59.9440868  70.7879247 110.5214946  60.2942454
  72.2738891 110.9847079  73.2894892  71.9828757 111.8892709  73.1741558
  72.9095875 111.0263606  74.0038961  73.1995098 108.3623927  69.8796251
  73.7958670 108.1379949  69.1653214  73.2570069 107.6208673  70.4821699
  72.7720126 105.8163362  57.7146442  73.0245647 105.2944884  56.9529905
  71.8344685 105.6529508  57.8173126  77.8163409 104.8199141  65.5221185
  78.6026498 104.4018564  65.1711602  78.0802113 105.7245233  65.6902834
  77.9873486 110.2571991  60.2209842  77.3519319 110.3306618  60.9330747
  77.6570893 110.8465590  59.5428921  83.2171836 104.7574374  66.4254164
  83.9497008 104.1873591  66.6591993  82.4611192 104.3695974  66.8660669
  72.4916415 107.7191468  59.9170817  72.3752673 107.0436372  60.5851901
  72.6018675 107.2323842  59.1002970  74.8347956 107.1801615  63.6217506
  74.4706163 106.6532236  64.3330428  75.6915072 106.7900085  63.4483992
  80.7397256  98.4695948  70.8848772  80.4080581  99.3391359  70.6609987
  80.1442870  98.1532232  71.5642803  74.4753443 102.2091515  58.6178855
  74.6427845 103.0771752  58.9849326  74.2850612 102.3718797  57.6940144
  77.2328776 110.6708494  70.2844685  76.9329499 111.5733533  70.1760492
  76.8879835 110.4040677  71.1365838  70.6841257 107.1222291  66.3181390
  69.7591754 106.9898505  66.5259081  70.9325671 107.9016510  66.8151332
  80.6325920 103.1891034  67.9642123  79.7242797 103.1206443  67.6700884
  80.5813515 103.6662979  68.7923948  74.4542664 104.6649173  59.6025522
  74.3342289 105.1106223  60.4411002  73.7595252 105.0134490  59.0439060
  68.0450068 106.7655564  67.1525179  68.1742450 107.0190043  68.0664590
  67.3647520 107.3583272  66.8329834  74.7066785 104.6080680  75.9077020
  73.9300120 105.1674600  75.8979884  75.3457348 105.0937463  76.4291890
  82.4987566 101.3907473  69.7419996  81.8561946 101.6840006  69.0959791
  81.9942495 101.2760393  70.5473193  80.1527730 105.1370646  60.4305856
  81.0645586 105.3698033  60.2553553  79.6437377 105.7207690  59.8680934
  72.9613158 107.4166133  75.4694987  73.7027842 107.9551177  75.1929810
  72.2550143 108.0432422  75.6266539  78.4368497 109.5595274  74.0667148
  78.8451853 109.1177684  73.3221781  77.7145759 108.9847901  74.3201341
  74.7899567 104.4967880  71.4400705  75.6360763 104.9207294  71.5835354
  74.7298205 103.8401505  72.1339268  78.7597312 110.1196464  67.8219437
  78.1306174 110.2842178  67.1195505  78.3722974 110.5338074  68.5930401
  77.9399013 102.1572249  73.0981879  77.6959945 102.9114309  72.5616155
  78.2158943 102.5357596  73.9329126  79.8937476 108.7010861  71.7759144
  80.1054371 109.3442621  71.0993526  79.8467224 107.8673178  71.3081075
  77.4963704 101.3128682  68.6795717  76.6348184 101.6109935  68.9712454
  77.5226139 101.5299081  67.7476749  74.3125274 109.8570872  65.0869522
  74.7763619 110.1358575  64.2974145  74.0482072 108.9554317  64.9042613
  71.2049355 109.4042354  68.0249286  71.7750712 109.8329622  67.3866770
  71.7957467 109.1224939  68.7233471  73.2494160 105.9794025  61.8959087
  73.9518203 106.4315068  62.3633014  72.9174788 105.3377844  62.5238981
  71.6974521 104.5705781  76.2710297  71.0673182 105.2522062  76.5045694
  71.5910609 104.4588863  75.3263435  66.9919494 104.2377577  67.1976221
  66.2018548 104.4935106  66.7216332  67.4830741 105.0525915  67.3028262
  68.9434239 104.6022157  64.1559698  68.1465403 104.7140851  64.6743193
  68.7159832 104.9408809  63.2900588  74.7739907 111.1266860  72.1042212
  74.8384339 111.5887267  72.9400384  74.0650831 110.4964225  72.2324522
  65.2757197 104.4908068  69.6291212  65.5265235 105.3755078  69.8948788
  65.8116745 104.3112669  68.8566304  74.4887925 112.7934967  61.9721193
  74.3533599 113.6386503  62.4006040  75.0297737 112.9954245  61.2087126
  70.9755264  98.8726547  78.6335548  70.5822210  98.3192746  79.3083192
  71.7921405  99.1837126  79.0242065  67.9417322 110.3110405  62.5449118
  68.4541843 111.1053656  62.6954682  68.5940035 109.6136696  62.4782719
  69.7512207 113.4276162  64.6271871  69.9278835 114.3494126  64.4392855
  70.5469040 113.1134581  65.0566251  73.8923225 100.2884426  76.2255804
  74.6332939 100.8891579  76.1460267  74.1241148  99.5462064  75.6673847
  69.0364563 105.4740794  74.5034034  68.9218078 104.5726051  74.8041133
  68.1809081 105.7204490  74.1518851  70.8743522 114.9454335  70.6282213
  71.4250947 114.8171399  69.8559207  70.0354998 115.2449224  70.2777106
  74.6710693 111.2105463  74.9726444  75.2039030 110.4493751  74.7425752
  74.1424774 110.9179115  75.7150599  77.8380388  96.3165529  70.5020086
  77.4944658  97.2067171  70.4259197  78.2059351  96.1267187  69.6389671
  65.9066239 108.6399060  63.3208688  66.7441461 109.0496068  63.1042396
  66.0844506 107.6998502  63.2908882  77.8030671 106.3074140  59.0092521
  77.2877294 107.0778745  59.2480909  77.5307979 105.6339277  59.6325583
  75.3877782 101.1523841  64.0677760  74.5319378 100.7630692  63.8883398
  75.8004734 101.2315802  63.2077545  76.9176929  98.6870184  68.4669319
  76.4141724  98.6500320  67.6537125  77.2107535  99.5962927  68.5265976
  73.1619814  98.7708914  67.4735501  74.0272811  98.5751723  67.1141391
  73.2297323  98.5419266  68.4004858  77.5916974 104.1801232  60.8352302
  77.2867110 104.4947382  61.6862446  78.5447416 104.2582652  60.8779635
  76.0363406 110.3391456  62.4845256  75.5084767 109.6044215  62.1718494
  75.5350909 111.1166132  62.2385225  70.7682134 101.0011122  64.8451868
  71.3425885 100.7786304  64.1125061  71.3553116 101.0699817  65.5980469
  79.8261711 106.8884849  65.6516244  80.3393592 107.5214841  66.1537954
  80.4762935 106.2886044  65.2859604  71.0951721 103.0315583  58.8647753
  70.2589033 103.3690270  59.1857028  70.9556490 102.8964563  57.9274890
  73.0704801  97.8752371  63.5726937  72.4169214  97.5601388  62.9483552
  73.0285275  97.2528111  64.2986760  74.1816006 108.1571666  55.4880229
  73.2743068 107.9260919  55.6871378  74.6787038 107.3609285  55.6754211
  76.3042542 104.3634304  67.8974585  75.3865103 104.5849251  67.7396273
  76.7202685 104.4380615  67.0386292  77.0877589 105.7625720  63.0277265
  77.8349408 106.2747117  62.7184387  77.3569179 105.4409773  63.8881659
  75.3604240 108.2584261  60.0104220  74.4515459 107.9743294  60.1076689
  75.3899323 108.6783339  59.1507526  79.5356426 102.7982836  65.0096055
  78.7979183 102.2860223  65.3406297  79.7883200 102.3583218  64.1979331
  79.6368054  95.5759088  65.6037824  79.9426931  94.7156452  65.3163739
  80.3620659  96.1676709  65.4036818  65.9292410 105.9789775  63.9919422
  65.7316810 105.3859136  63.2670488  65.3739074 105.6741985  64.7095361
  73.9089134 105.8712881  66.1114015  73.9637743 104.9186718  66.0356491
  73.0980336 106.0272321  66.5955313  75.0580327 109.7993005  57.3492298
  74.6199757 109.0828863  56.8897935  75.7990768 110.0269119  56.7877389
  71.8481493 104.4889941  63.8704394  71.0349359 104.7884112  64.2769586
  72.3440488 104.0945630  64.5878876  77.4455705 104.9531766  72.7019288
  77.8005093 105.1803239  73.5613753  78.0927836 105.2850142  72.0796543
  71.3395568 102.0608297  69.4865629  71.9794948 101.9197056  68.7888592
  70.5073099 101.7742810  69.1104231  72.1155872 111.3610727  65.6000621
  72.9096471 110.8661047  65.3983196  71.4047565 110.8328590  65.2368327
  68.4238636 105.5053809  61.6760374  67.4936224 105.4438264  61.8930336
  68.5196108 104.9829762  60.8797015  68.3424185 102.0308622  64.2638615
  68.6031002 102.9453955  64.1547776  69.1641357 101.5633064  64.4135228
  69.8149110 103.4446379  71.4337440  70.4872163 103.2363741  70.7850089
  68.9878897 103.2468465  70.9942672  75.7174682 100.0708320  73.4503101
  75.0702597 100.7698269  73.3567577  76.4875697 100.5044464  73.8179349
  75.8938816 107.9089085  71.5099921  76.8230876 108.0600244  71.3368888
  75.4729846 107.9973106  70.6548567  74.6927148 111.9339749  69.2798458
  74.5538234 111.5658534  70.1524396  73.9041744 112.4487389  69.1082416
  76.2432363 111.3121352  66.6687296  75.9082196 111.2722122  67.5644946
  75.7436309 110.6466068  66.1957706  70.2176607 106.7188982  72.1939877
  70.0796405 105.9869221  72.7951416  71.1281531 106.6297882  71.9124065
  79.1791555 108.6577386  56.9424356  78.5620726 107.9324214  56.8457408
  78.7108043 109.4186746  56.5991430  72.8458908 106.4308941  71.6823557
  73.5558526 105.7902133  71.6410175  72.8028216 106.6821836  72.6049738
  71.5587842 103.4174159  73.5019196  71.0225199 102.9664898  74.1540793
  70.9704550 103.5520068  72.7589661  70.9690101 102.8762811  56.0645660
  70.0919567 102.7551611  55.7007907  71.4447854 102.0848889  55.8124549
  62.4892241 107.6639970  66.1587167  63.1763281 107.3501700  65.5708182
  62.3340370 108.5681335  65.8854419  67.2926963 102.5530167  70.5872191
  67.2085152 101.9455836  69.8522601  66.4709670 103.0439185  70.5881687
  77.4650677 101.0383730  65.9542386  77.9619377 100.2853693  65.6343456
  76.6937658 101.0748047  65.3885595  78.5480458 109.7955418  63.5280809
  77.6136736 109.9156880  63.3585514  78.7257126 108.8927884  63.2640819
  74.0485646 103.1801113  65.6814070  73.6783433 102.6272154  66.3694976
  74.5444738 102.5759247  65.1289070  81.9353009 105.6372737  64.0630843
  82.4013461 106.4700728  63.9891146  82.3860510 105.1717718  64.7676102
  71.8774844 113.6398608  72.7769088  72.5784304 114.2735091  72.9298483
  71.4069959 113.9813340  72.0164728  79.9069672  98.0053324  68.1021745
  78.9932752  98.2357551  68.2703952  80.3362773  98.0891768  68.9535777
  79.6776130 106.1943216  70.6021639  79.0247581 106.4419123  69.9474092
  80.0556510 105.3807354  70.2684116  75.7263703 106.9363027  77.0887676
  75.0504340 106.8357156  77.7590051  76.5491337 106.7802241  77.5523673
  67.4742562 113.1734963  69.7100191  68.0595999 112.4278651  69.8428095
  67.2767401 113.4838920  70.5936855  62.0660217 105.7440564  68.4304634
  62.1044317 105.2104154  69.2241752  61.5600510 105.2175769  67.8115611
  69.4450979 100.5905104  71.9267177  69.5092306 101.4519935  71.5144574
  69.3818100  99.9779106  71.1939535  68.9203252 102.6628237  75.5740211
  69.5475291 102.2805314  76.1877735  68.0631171 102.4442439  75.9395903
  65.6968795 104.4704666  61.5058566  65.9922236 103.5615344  61.4525619
  64.7956830 104.4492405  61.1839568  69.2263042 102.5460662  67.4886114
  68.5049627 103.1596630  67.3493588  70.0156297 103.0818427  67.4102760
  72.0289355  99.8815089  73.7626766  72.5523757 100.1277385  74.5253075
  71.8101688 100.7135124  73.3429903  67.4256636 102.1518763  61.6297891
  67.0969342 101.2716142  61.4472997  67.7796007 102.0966432  62.5174280
  70.5398459 102.4391733  61.9973368  70.8794532 102.9677654  61.2751977
  70.9870580 102.7772139  62.7731935  73.2341900 100.8228784  71.4476437
  72.8938721 100.0236597  71.8497116  72.5280907 101.1230495  70.8753270
  73.8858372  97.9078096  69.9003760  74.7084441  97.4338575  69.7782650
  74.1296436  98.6868580  70.4002446  72.5266607 100.9366355  60.1966661
  73.2474969 101.3147608  59.6930378  71.9031911 101.6555232  60.3001639
  76.6697729 101.6411504  61.1324994  76.8861344 102.5236142  60.8313822
  76.1891797 101.2497717  60.4030636  71.4096951 104.5997217  67.7095738
  71.2641532 104.9137520  68.6020020  70.9322154 105.2182117  67.1566637
  73.2693334 101.5899765  67.7576628  73.2554902 100.6940858  67.4208926
  73.9865762 101.5970429  68.3914914  75.1219464 102.0237105  69.8029755
  74.8637242 102.9454176  69.8014086  74.5904505 101.6267540  70.4930219
  65.8842613 107.1402561  70.6483399  65.3396081 107.9162369  70.7803674
  66.7621963 107.4873366  70.4902521  72.6730230 100.4714145  63.0264198
  72.7946141  99.5430791  63.2255085  72.3832272 100.4852831  62.1142513
  75.5421420  98.1569056  66.1630918  75.5643117  98.2208389  65.2082897
  75.9589479  97.3173564  66.3571424  66.6708635 106.2672458  73.5413556
  65.9290371 106.4155093  74.1278187  66.3501379 106.5280723  72.6780306
  67.1165249 114.1537886  65.5723951  67.9423268 113.8541658  65.1922594
  66.7659301 113.3845509  66.0213739  72.0846782 113.5064355  67.6421624
  71.4626791 112.8435060  67.3423852  72.7551649 113.5325486  66.9595272
  65.3173854 112.0724213  66.5312884  64.4805762 111.6446387  66.3496886
  65.2897499 112.2656656  67.4683676  72.1571309 101.9846143  77.2354130
  72.2059465 102.8608265  76.8531900  72.6993823 101.4423536  76.6625774
  71.6460289 112.0568278  61.1180085  71.7948409 112.7403742  60.4646758
  72.4526732 112.0373368  61.6329541  80.0527792 105.3610660  75.1447303
  80.9537655 105.2217125  74.8531301  80.1275767 105.5265115  76.0845480
  74.3870598 102.7377515  73.9900489  73.5173907 103.0311081  73.7183078
  74.6230078 103.3217960  74.7107753  82.5129415 106.9209288  72.5410076
  82.9883537 107.1136935  71.7328927  81.5894980 106.9768474  72.2953459
  69.4012922 108.0833456  62.1241154  69.1558964 107.1795786  62.3221364
  69.5708836 108.0850606  61.1820632  77.0909631  98.9557132  71.5065909
  77.6091575  99.6918159  71.1812398  76.7364764  99.2621125  72.3412669
  68.6708569 103.8161813  59.6227315  67.9777814 103.8906168  58.9667351
  68.4260321 103.0522157  60.1448832  77.3422226  95.3757414  67.0266806
  77.6223979  94.7080604  67.6527233  78.1272833  95.5686510  66.5141470
  81.2131084 103.7975048  70.7738381  82.1648507 103.8973146  70.7950605
  81.0434534 103.0053317  71.2836466  79.2345463 100.8830632  70.9597782
  78.6395396 101.1635644  70.2644271  78.9495160 101.3724533  71.7314523
  83.6919162 107.0181168  69.8880681  83.6595482 106.0797169  70.0740365
  84.3019785 107.0965205  69.1546506  75.5302493 105.8877221  55.9307885
  76.4761597 105.7583429  55.9996303  75.1516738 105.1491883  56.4077313
  83.8413650 103.8092212  69.9338964  83.3252699 103.0250668  69.7468893
  84.7253599 103.4810928  70.0985484  81.5024377  97.5533227  65.8934777
  81.3049198  97.2448315  66.7778109  82.1124083  98.2794866  66.0232707
  73.7145410 103.8127198  55.8662770  72.8076865 103.5160310  55.9425484
  73.9921391 103.5157016  54.9997056  64.6323350 105.1333561  66.3161817
  64.3126135 104.2798869  66.0236191  64.0856778 105.3482139  67.0719784
  68.4103258 107.8496002  70.0331323  68.6289267 108.7813110  70.0519357
  68.8229032 107.4903976  70.8186127  75.3307476  98.3564087  62.0207011
  74.5208204  98.0111172  62.3962257  76.0191892  98.0471631  62.6094623
  77.2598024  97.4342134  63.6431308  77.8129062  97.8537587  64.3021331
  77.4968110  96.5077882  63.6854264  73.2831123 103.4229208  79.4234072
  73.1827850 104.3723565  79.3546163  73.0652665 103.0947447  78.5510142
  72.4844194 100.6714133  56.0074749  73.3463358 100.9969031  56.2670567
  72.6694539  99.8845629  55.4947815  64.5011610 108.7536472  68.2854938
  63.8075082 108.3390425  67.7724893  65.2484601 108.7957009  67.6888357
  80.6376831  99.5442659  63.1509972  80.0575500 100.2027463  62.7688025
  80.3712764  98.7220004  62.7397390  79.0880397  98.9447717  65.3531293
  79.5880176  99.0564251  64.5445611  79.7316005  98.6408770  65.9932101
  73.1462393 106.8526347  78.2399134  72.6629475 107.6526707  78.4463023
  73.2323332 106.8634291  77.2866578  66.4148353 108.6854726  66.1620953
  66.3919041 108.7842413  65.2102836  66.7248989 109.5319877  66.4838119
  69.0735731 110.7430881  70.2767567  70.0278984 110.7114824  70.2097499
  68.8748254 110.2821505  71.0917793  69.6635113 109.3131997  72.8438365
  70.4828002 109.8076076  72.8673202  69.9371920 108.3963965  72.8155933
  79.4201709 101.7042750  62.2066321  78.5327564 101.9892400  61.9886515
  79.8355698 101.5436513  61.3593597  82.7716245 101.7289271  65.9220660
  83.5476635 102.2185723  66.1945277  82.0464379 102.1547325  66.3792529
  85.2088804 102.4416890  66.9794600  85.8033294 102.2012626  66.2687909
  85.2815387 101.7224020  67.6068137  79.3942733 107.2197286  62.4216611
  79.3377934 107.6765837  61.5824243  79.9471075 106.4587970  62.2439453
  83.2047539 103.0087017  63.2466730  82.9484473 102.6083653  64.0774938
  82.5800407 103.7230811  63.1216869  80.1277512 108.4102067  59.7169140
  80.0726316 108.2446338  58.7757584  79.5023567 109.1178100  59.8731330
  64.9170027 103.6470131  73.5430562  65.5628891 103.1369085  74.0317787
  64.7087178 104.3838813  74.1173987  73.4373637  97.9110176  59.2954458
  73.4252307  98.8552016  59.4522729  74.3297059  97.7280321  59.0013920
  77.2525757  94.5052952  63.5500395  76.4858153  93.9511439  63.6957077
  77.6636462  94.5774821  64.4114547  69.2567518 100.7937748  77.6405576
  70.1198979 100.4374553  77.8508901  68.6832929 100.4551643  78.3280981
  24.0653369   7.4550221  55.1713284  24.7031779   7.3356968  54.4676624
  23.9474212   8.4031065  55.2301236  20.8743075   7.4077649  55.1074809
  20.5361587   7.2918714  54.2195344  21.7432844   7.0068814  55.0875815
  16.7329891   9.2613126  51.0971700  16.1694756   9.1703063  50.3287987
  16.6182286   8.4413030  51.5774192  21.3562858   8.5612501  61.0661014
  21.3451499   8.1665299  60.1941518  21.5183498   7.8278574  61.6594786
  14.2794323  10.7564317  53.9355920  15.0715615  10.4155142  53.5202219
  14.5190973  10.8659292  54.8558073  22.3129450  12.9284093  46.4086165
  21.6617430  13.5138174  46.0220178  23.1073813  13.4590288  46.4681202
  16.2385077  10.0173230  46.8073299  17.0115953   9.4702218  46.6686175
  16.5910476  10.8817480  47.0187760  18.0770120  11.3449613  60.0140198
  17.7859986  12.2495244  59.8986865  18.7127104  11.3866140  60.7284268
  19.0026326   8.7226461  56.6041558  19.5989899   8.4982484  55.8898521
  19.0601298   7.9811207  57.2067006  18.5751355   6.1765897  44.4391749
  18.8276876   5.6547418  43.6775212  17.6375914   6.0132042  44.5418432
  23.6194638   5.1801675  52.2466492  24.4057727   4.7621098  51.8956909
  23.8833342   6.0847767  52.4148140  23.7904715  10.6174525  46.9455149
  23.1550548  10.6909152  47.6576053  23.4602121  11.2068124  46.2674228
  29.0203065   5.1176908  53.1499471  29.7528237   4.5476125  53.3837300
  28.2642420   4.7298509  53.5905976  18.2947644   8.0794003  46.6416124
  18.1783902   7.4038906  47.3097208  18.4049903   7.5926376  45.8248277
  20.6379185   7.5404150  50.3462813  20.2737392   7.0134771  51.0575734
  21.4946300   7.1502619  50.1729298  26.5428485  -1.1701518  57.6094079
  26.2111810  -0.3006107  57.3855294  25.9474099  -1.4865234  58.2888110
  20.2784671   2.5694049  45.3424162  20.4459074   3.4374286  45.7094633
  20.0881841   2.7321331  44.4185451  23.0360005  11.0311028  57.0089992
  22.7360728  11.9336067  56.9005799  22.6911064  10.7643211  57.8611145
  16.4872486   7.4824825  53.0426696  15.5622983   7.3501039  53.2504388
  16.7356899   8.2619044  53.5396639  26.4357148   3.5493568  54.6887429
  25.5274026   3.4808977  54.3946190  26.3844744   4.0265513  55.5169255
  20.2573892   5.0251707  46.3270828  20.1373518   5.4708758  47.1656309
  19.5626481   5.3737025  45.7684366  13.8481297   7.1258099  53.8770485
  13.9773678   7.3792578  54.7909897  13.1678749   7.7185807  53.5575140
  18.0180784  17.7955349  49.9760960  17.9404814  18.7463174  50.0549440
  17.4142428  17.4501221  50.6335886  20.5098014   4.9683214  62.6322326
  19.7331348   5.5277134  62.6225191  21.1488577   5.4539997  63.1537197
  28.3018795   1.7510007  56.4665303  27.6593175   2.0442540  55.8205098
  27.7973723   1.6362927  57.2718500  25.9558959   5.4973180  47.1551162
  26.8676815   5.7300567  46.9798860  25.4468606   6.0810224  46.5926241
  18.7644387   7.7768667  62.1940293  19.5059071   8.3153711  61.9175117
  18.0581372   8.4034956  62.3511845  24.2399726   9.9197808  60.7912455
  24.6483082   9.4780218  60.0467087  23.5176988   9.3450435  61.0446648
  20.5930796   4.8570415  58.1646012  21.4391991   5.2809828  58.3080661
  20.5329434   4.2004039  58.8584575  24.5628541  10.4798998  54.5464744
  23.9337403  10.6444713  53.8440812  24.1754203  10.8940608  55.3175708
  28.4417773  11.4153436  51.9009108  27.7568811  11.7952338  51.3506141
  28.5261622  12.0248763  52.6341055  23.7430242   2.5174783  59.8227186
  23.4991173   3.2716844  59.2861461  24.0190172   2.8960131  60.6574433
  25.6968704   9.0613395  58.5004451  25.9085600   9.7045155  57.8238832
  25.6498453   8.2275712  58.0326381  23.2994933   1.6731216  55.4041023
  22.4379412   1.9712470  55.6957761  23.3257368   1.8901615  54.4722056
  20.1156503  10.2173407  51.8114829  20.5794848  10.4961110  51.0219451
  19.8513301   9.3156851  51.6287920  17.0080584   9.7644888  54.7494592
  17.5781941  10.1932156  54.1112077  17.5988696   9.4827473  55.4478778
  19.0525389   6.3396559  48.6204394  19.7549432   6.7917603  49.0878320
  18.7206017   5.6980378  49.2484287  17.5005750   4.9308316  62.9955603
  16.8704411   5.6124596  63.2291000  17.3941838   4.8191397  62.0508742
  26.8114532  11.9385351  56.6726808  27.6331976  11.5365538  56.3909490
  26.8076935  11.8353585  57.6242924  20.5771136  11.4869394  58.8287519
  20.6415568  11.9489801  59.6645691  19.8682060  10.8566759  58.9569829
  34.9020525   8.2824099  53.0211780  34.1484234   7.7131497  52.8655784
  35.0368067   8.2486764  53.9682415  20.2919153  13.1537502  48.6966499
  20.1564828  13.9989037  49.1251347  20.8328966  13.3556779  47.9332433
  13.7448551  10.6712940  49.2694424  14.2573071  11.4656190  49.4199989
  14.3971264   9.9739230  49.2028026  15.5543435  13.7878696  51.3517178
  15.7310064  14.7096661  51.1638161  16.3500269  13.4737115  51.7811557
  21.9187630  13.7761068  62.8266841  21.4751484  12.9897447  62.5087746
  22.5804843  13.9640219  62.1610732  16.6774751  15.3056870  57.3527520
  17.2282176  15.1773933  56.5804514  15.8386227  15.6051759  57.0022413
  24.0168868  14.0563868  60.8548243  23.9987343  14.8772749  60.3628512
  24.9388788  13.9317943  61.0798384  20.4741922  11.5707998  61.6971751
  21.0070259  10.8096286  61.4671059  19.9456003  11.2781649  62.4395906
  11.7097468   9.0001594  50.0453995  12.5472690   9.4098602  49.8287703
  11.8875735   8.0601036  50.0154189  23.6061900   6.6676675  45.7337828
  23.0908523   7.4381279  45.9726215  23.3339208   5.9941811  46.3570889
  28.5796174   9.4209029  47.6691001  27.8025617   9.0820189  47.2246163
  29.2587655   9.4261652  46.9945966  23.3948203   4.5403767  47.5597609
  23.0898338   4.8549916  48.4107752  24.3478645   4.6185187  47.6024942
  21.8394635  10.6993990  49.2090563  21.3115996   9.9646750  48.8963800
  21.3382137  11.4768666  48.9630531  26.8187481   8.8943010  54.3257609
  26.1611155   9.5842272  54.4137738  27.6227880   9.2839442  54.6691596
  25.6292940   7.2487383  52.3761551  26.1424821   7.8817375  52.8783261
  26.2794163   6.6488579  52.0104911  19.9847235   8.5174200  42.2125536
  19.0774297   8.2863454  42.4116685  20.4818267   7.7211819  42.3999518
  22.8915314  17.2271707  45.1322222  22.2177013  17.5303404  45.7407180
  23.2781136  18.0300788  44.7827679  22.1073770   4.7236839  54.6219892
  21.1896332   4.9451786  54.4641580  22.5233914   4.7983149  53.7631599
  22.8908818   6.1228254  49.7522572  23.6380637   6.6349652  49.4429694
  23.1600408   5.8012307  50.6126965  21.1635468   8.6186795  46.7349526
  20.2546688   8.3345828  46.8321996  21.1930552   9.0385874  45.8752833
  26.3954736  12.2293385  50.5040694  25.9417063  11.3884294  50.5605884
  25.7648702  12.8654783  50.8415474  25.3387655   3.1585371  51.7341361
  24.6010412   2.6462757  52.0651604  25.5914429   2.7185752  50.9224638
  24.8387675  14.0669881  51.4390512  25.1310649  14.6274938  50.7202877
  25.3486296  14.3598442  52.1943671  19.7120362   6.2315416  52.8359322
  19.7668972   5.2789252  52.7601798  18.9011564   6.3874855  53.3200620
  20.8611556  10.1595539  44.0737605  20.4230986   9.4431398  43.6143242
  21.6021997  10.3871654  43.5122696  17.6512722   4.8492475  50.5949700
  16.8380588   5.1486646  51.0014893  18.1471716   4.4548164  51.3124183
  19.8021300  14.8450232  52.5283965  19.7597479  15.0711079  51.5992497
  20.7183999  14.6113607  52.6769766  23.2486934   5.3134300  59.4264594
  23.6036322   5.5405773  60.2859060  23.8959065   5.6452677  58.8041850
  28.9784671   8.4352736  50.1313923  28.8402569   8.6254332  49.2035113
  28.6220890   9.1972119  50.5881974  29.0054051  10.5029263  55.1425195
  29.4390557  10.4104552  55.9908249  29.7185631  10.4786763  54.5045211
  17.9187101  11.7213261  52.3245928  18.7127699  11.2263582  52.1228503
  17.2078793  11.1931125  51.9613633  22.7381945  14.1031357  56.6758295
  22.7918968  14.6722293  57.4436011  21.8696727  14.2733242  56.3112333
  29.8669600  10.5452963  57.6758080  30.0605490  11.4498774  57.9217355
  29.7670218  10.0860383  58.5096665  24.9284709  10.6959706  63.2498961
  24.7770215  10.4670258  62.3329045  24.9189388  11.6530308  63.2630306
  21.6970045   8.2691619  58.2345227  22.6262105   8.4202779  58.0614195
  21.2761075   8.3575640  57.3793874  20.4958377  12.2942283  56.0043765
  20.3569463  11.9261068  56.8769703  19.7072973  12.8089923  55.8327723
  21.0906529  17.3951380  47.3469301  21.2658285  16.9239423  48.1614924
  20.4039317  18.0217146  47.5750562  22.0463592  11.6723886  53.3932603
  21.7113425  11.6324656  54.2890253  21.5467538  11.0068602  52.9203013
  16.0207836   7.0791516  58.9185184  15.8827634   6.3471755  59.5196723
  16.9312760   6.9900416  58.6369372  24.9822784   9.0179920  43.6669662
  24.3651954   8.2926749  43.5702715  24.5139272   9.7789281  43.3236737
  18.6490137   6.7911475  58.4068863  19.3589755   6.1504668  58.3655482
  18.6059445   7.0424370  59.3295044  26.6376915  13.7278829  61.3275443
  26.5789462  13.0438049  60.6606026  27.0396434  14.4697819  60.8756069
  15.6567614  20.5440743  54.1209162  15.8964212  21.1759267  54.7988180
  14.8136811  20.1928783  54.4074521  26.6394323  11.6918413  59.5589422
  25.7521101  11.3544334  59.6815821  27.2092874  10.9601444  59.7958188
  20.1695476  16.3519865  56.5250666  20.0965648  17.1574837  57.0369970
  19.7272869  16.5511831  55.6998687  19.9585256  15.5891635  50.0353487
  19.1752778  16.1313315  50.1291712  20.6578001  16.1065615  50.4347728
  23.2681906   1.3986265  52.6787693  23.7650605   0.6456227  52.3588763
  22.4968887   1.4350581  52.1130902  31.1211663   7.1026630  54.3205984
  31.1101539   7.9851346  53.9499917  30.2529043   6.7498181  54.1260521
  22.6294160  16.2506699  58.6808824  23.3422132  16.8854164  58.6084726
  22.1384188  16.3470565  57.8648826  24.3511686  10.1557952  50.2526116
  23.4167965  10.2759414  50.0830820  24.5288355   9.2530419  49.9886126
  19.8516875   3.5403648  52.4059377  19.4814662   2.9874688  53.0940283
  20.3475967   2.9361781  51.8534377  27.7384238   5.9975271  50.7876150
  28.2044690   6.8303263  50.7136453  28.1891738   5.5320253  51.4921409
  17.6806073  14.0001143  59.5014395  18.3815533  14.6337626  59.6543789
  17.2101188  14.3415874  58.7410034  25.8060469  12.3419092  47.7862302
  26.0820313  12.2275687  48.6956176  24.9364968  11.9436577  47.7474475
  25.4807359   6.5545750  57.3266945  24.8278809   6.8021657  56.6719398
  25.8587739   5.7409888  56.9929423  22.4414533  16.5905443  51.4295116
  22.6236927  15.7727099  51.8922868  23.2647519  16.8073135  50.9920006
  22.7756698  15.5173628  48.6910164  23.3044465  15.0066083  48.0780326
  23.0384918  15.2016159  49.5555697  21.5294932   7.2965561  63.8132982
  20.8535569   7.1959690  64.4835358  22.3522566   7.1404775  64.2768980
  13.2773791  13.5337498  56.4345498  13.8627228  12.7881186  56.5673402
  13.0798630  13.8441454  57.3182162  16.1312446  16.5688745  51.4507940
  15.4622822  17.0534873  50.9671980  15.9925316  16.8157965  52.3651319
  20.2717715  18.6032489  58.0490598  20.8236023  18.7664110  58.8139684
  20.6123908  19.1936926  57.3770623  25.1228589  13.4293746  63.9039253
  25.6668493  14.0423704  63.4094208  24.5415434  13.9873324  64.4206266
  23.4086102  16.5514464  55.0354281  23.2837242  15.7504204  54.5265226
  24.0665193  17.0460657  54.5468251  25.4721011  14.3523484  56.6633831
  24.5251346  14.2328835  56.5912157  25.8203784  13.4645982  56.7460092
  22.4767444  14.1476200  52.8638183  22.3292406  13.2192908  53.0445753
  23.3020937  14.1696291  52.3795258  26.0801566  14.9704759  53.9503056
  27.0048113  14.7647620  53.8127507  25.9116869  14.7221160  54.8592397
  22.4728958   2.0014038  47.8570300  22.6892573   2.8838676  47.5559128
  21.9923025   1.6100251  47.1275942  17.2128180   4.9599751  54.4341045
  17.0672760   5.2740054  55.3265326  16.7353383   5.5784652  53.8811943
  20.9250693   2.3839639  56.5275062  20.6668471   3.3056710  56.5259392
  20.3935734   1.9870074  57.2175526  25.8696882  15.4890427  49.3065147
  26.0433760  14.9236849  48.5539000  26.3625773  16.2891321  49.1244637
  31.7236273   8.2526849  50.9255447  32.1667419   7.5034175  50.5274570
  30.8462783   8.2436986  50.5429179  26.8572054  14.8057191  46.4062045
  27.5522959  15.4263884  46.6249360  27.1995205  13.9552542  46.6814423
  28.7563478  12.2556896  47.9349376  29.2814802  12.5944169  47.2098696
  28.6685830  11.3203912  47.7512511  20.4183526  16.1690970  60.0639253
  20.7270653  15.9240117  60.9361952  21.2159008  16.3737609  59.5758123
  20.4404138  18.3228880  52.2944629  20.0009129  17.8305258  52.9877486
  21.1912255  17.7801847  52.0536705  12.9196477  14.5140421  52.2969257
  13.7454497  14.2144192  51.9167901  12.5690529  13.7448043  52.7459046
  17.8878011  13.8666889  54.3666931  17.2658020  13.2037594  54.0669159
  18.5582877  13.8928021  53.6840579  11.1205082  12.4326747  53.2558191
  10.2836991  12.0048921  53.0742192  11.0928728  12.6259190  54.1928982
  28.4457384  12.8889800  63.2400574  27.6552927  12.8713939  62.7005074
  28.2090738  13.4278094  63.9949611  28.5655259   9.7382266  60.5533303
  28.6153264   9.5732274  61.4948825  28.4569182   8.8709525  60.1631183
  17.4491517  12.4170812  47.8425392  17.5979638  13.1006277  47.1892064
  18.2557961  12.3975902  48.3574847  25.8559021   5.7213194  61.8692609
  26.7568884   5.5819659  61.5776607  25.9306996   5.8867649  62.8090787
  20.1901826   3.0980049  60.7145796  19.3205136   3.3913615  60.4428384
  20.4261307   3.6820494  61.4353059  30.0673456  12.1579208  60.7975324
  29.7758264  12.5209189  61.6338785  29.4545587  11.4446216  60.6188656
  31.2669138   9.7232088  53.3177894  32.1016029  10.1621892  53.4815455
  31.4028267   9.2470741  52.4986140  28.3160644   7.2811823  59.2655382
  28.7914765   7.4739469  58.4574234  27.3926209   7.3371008  59.0198766
  15.2044150   8.4435990  48.8486461  14.9590192   7.5398320  49.0466671
  15.3740065   8.4453140  47.9065939  20.9486923  14.9118943  45.3137139
  20.3760890  15.5309130  44.8607611  21.5219717  15.4618304  45.8477061
  27.0162313   4.1577583  57.4983688  27.9679736   4.2575680  57.5195912
  26.8465763   3.3655851  58.0081772  25.0376692   1.2433166  57.6843089
  24.4426624   1.5238179  56.9889577  24.7526389   1.7327067  58.4559830
  24.1684183  15.1956093  46.4445721  25.1014856  15.1301654  46.6478597
  24.0807396  16.0312360  45.9860254  26.7972199  14.5121963  43.4049669
  26.7185831  14.1781827  44.2985427  27.6181866  15.0043731  43.4041141
  29.4950391   7.3783702  56.6125987  29.4626711   6.4399703  56.7985671
  30.1051014   7.4567739  55.8791812  21.3333721   6.2479755  42.6553192
  22.2792826   6.1185963  42.7241610  20.9547966   5.5094417  43.1322620
  29.6444879   4.1694746  56.6584271  29.1283928   3.3853202  56.4714200
  30.5284828   3.8413462  56.8230790  27.3055606  -2.0864239  52.6180083
  27.1080427  -2.3949150  53.5023415  27.9155312  -1.3602600  52.7478013
  35.3126940   8.4399709  55.7532024  36.0430329   8.1784997  56.3139728
  34.7033886   7.7028431  55.7934092  33.3942238   6.5807572  56.3506475
  32.6675401   6.4463537  55.7422967  32.9789524   6.8884400  57.1563194
  21.2172414  10.2997501  64.1153849  22.1375423  10.4776100  64.3093895
  21.1821997   9.3553547  63.9633548  19.5176639   4.1729732  42.5908077
  18.6108094   3.8762844  42.6670790  19.7952620   3.8759550  41.7242363
  14.2134487   8.2098536  56.7576630  14.4320496   9.1415644  56.7764663
  14.6260260   7.8506511  57.5431433  19.0862352   3.7831742  66.1479379
  18.9859079   4.7326099  66.0791470  18.8683894   3.4549981  65.2755449
  26.4408060  -0.0954807  49.8755279  25.8606729   0.5629997  49.4933331
  26.1743992  -0.9177462  49.4642696  24.8911626  -0.6949749  52.0776599
  25.3911404  -0.5833214  51.2690918  25.5347234  -0.9988696  52.7177408
  18.9493622   7.2128881  64.9644440  18.4660704   8.0129241  65.1708329
  19.0354561   7.2236826  64.0111884  12.2179581   9.0457260  52.8866260
  12.1950270   9.1444948  51.9348143  12.5280218   9.8922411  53.2083426
  14.8766959  11.1033415  57.0012874  15.8310213  11.0717358  56.9342806
  14.6779483  10.6424039  57.8163100  15.4666341   9.6734532  59.5683672
  16.2859230  10.1678610  59.5918509  15.7403149   8.7566500  59.5401239
  25.2232938   2.0645284  48.9311627  24.3358793   2.3494934  48.7131822
  25.6386927   1.9039047  48.0838904  28.5747474   2.0891805  52.6465966
  29.3507864   2.5788257  52.9190583  27.8495608   2.5149859  53.1037836
  31.0120032   2.8019424  53.7039907  31.6064523   2.5615160  52.9933215
  31.0846616   2.0826555  54.3313443  13.2317188  16.6453035  54.0183072
  13.0971656  15.8853436  53.4521070  12.8149250  17.3693935  53.5511861
  24.3676151  11.8289958  43.0259647  25.0712001  12.0339961  43.6417303
  23.6438800  12.3966720  43.2908731  25.1973961   7.5799820  49.1461917
  25.1409163   8.0368371  48.3069550  25.7502304   6.8190504  48.9684760
  29.0078767   3.3689552  49.9712037  28.7515702   2.9686187  50.8020245
  28.3831635   4.0833346  49.8462176  33.3191105   6.1085625  52.4783328
  32.7590663   6.1778814  53.2514890  32.7134609   5.9326609  51.7582825
  16.3886314  17.5422352  54.2301515  16.2718698  18.4867784  54.1280205
  15.5678760  17.2395914  54.6187314  26.2762849  12.2672488  45.0758107
  27.1108453  11.8353686  44.8935582  26.1147191  12.0954501  46.0035002
  25.9308741   8.7704601  46.4414447  25.8757545   8.6048872  45.5002891
  25.3054796   9.4780634  46.5976636  23.2454648  11.0753513  65.7668009
  24.1145808  11.2494165  65.4054644  22.7661399  11.8947930  65.6443739
  17.4140828  18.1950614  57.4457443  18.3168075  18.2274224  57.7623938
  17.1878198  17.2651065  57.4603779  19.1694430  16.9481600  54.1067522
  18.2190061  16.9483462  53.9931894  19.4726916  16.2014335  53.5903556
  34.9047124  22.7842139  55.1713284  35.5425534  22.6648886  54.4676624
  34.7867967  23.7322983  55.2301236  31.7136830  22.7369567  55.1074809
  31.3755341  22.6210632  54.2195344  32.5826598  22.3360732  55.0875815
  27.5723646  24.5905043  51.0971700  27.0088511  24.4994980  50.3287987
  27.4576041  23.7704948  51.5774192  32.1956613  23.8904419  61.0661014
  32.1845254  23.4957217  60.1941518  32.3577252  23.1570491  61.6594786
  25.1188078  26.0856235  53.9355920  25.9109369  25.7447060  53.5202219
  25.3584728  26.1951210  54.8558073  33.1523204  28.2576011  46.4086165
  32.5011184  28.8430091  46.0220178  33.9467567  28.7882206  46.4681202
  27.0778832  25.3465148  46.8073299  27.8509708  24.7994135  46.6686175
  27.4304230  26.2109397  47.0187760  28.9163874  26.6741530  60.0140198
  28.6253740  27.5787161  59.8986865  29.5520858  26.7158058  60.7284268
  29.8420081  24.0518379  56.6041558  30.4383653  23.8274401  55.8898521
  29.8995052  23.3103124  57.2067006  29.4145109  21.5057814  44.4391749
  29.6670630  20.9839336  43.6775212  28.4769668  21.3423960  44.5418432
  34.4588392  20.5093593  52.2466492  35.2451481  20.0913016  51.8956909
  34.7227096  21.4139685  52.4148140  34.6298470  25.9466443  46.9455149
  33.9944302  26.0201069  47.6576053  34.2995876  26.5360042  46.2674228
  39.8596819  20.4468826  53.1499471  40.5921991  19.8768043  53.3837300
  39.1036175  20.0590426  53.5905976  29.1341398  23.4085920  46.6416124
  29.0177656  22.7330824  47.3097208  29.2443658  22.9218294  45.8248277
  31.4772939  22.8696067  50.3462813  31.1131146  22.3426688  51.0575734
  32.3340055  22.4794536  50.1729298  37.3822240  14.1590400  57.6094079
  37.0505564  15.0285811  57.3855294  36.7867853  13.8426684  58.2888110
  31.1178426  17.8985967  45.3424162  31.2852828  18.7666203  45.7094633
  30.9275595  18.0613249  44.4185451  33.8753759  26.3602946  57.0089992
  33.5754482  27.2627985  56.9005799  33.5304819  26.0935129  57.8611145
  27.3266241  22.8116743  53.0426696  26.4016737  22.6792957  53.2504388
  27.5750654  23.5910962  53.5396639  37.2750903  18.8785486  54.6887429
  36.3667780  18.8100895  54.3946190  37.2238499  19.3557431  55.5169255
  31.0967647  20.3543625  46.3270828  30.9767272  20.8000675  47.1656309
  30.4020235  20.7028942  45.7684366  24.6875052  22.4550016  53.8770485
  24.8167433  22.7084495  54.7909897  24.0072503  23.0477724  53.5575140
  28.8574539  33.1247266  49.9760960  28.7798569  34.0755091  50.0549440
  28.2536183  32.7793139  50.6335886  31.3491769  20.2975132  62.6322326
  30.5725103  20.8569052  62.6225191  31.9882332  20.7831915  63.1537197
  39.1412549  17.0801925  56.4665303  38.4986930  17.3734458  55.8205098
  38.6367478  16.9654845  57.2718500  36.7952713  20.8265098  47.1551162
  37.7070569  21.0592484  46.9798860  36.2862360  21.4102142  46.5926241
  29.6038141  23.1060585  62.1940293  30.3452825  23.6445629  61.9175117
  28.8975127  23.7326874  62.3511845  35.0793481  25.2489726  60.7912455
  35.4876837  24.8072136  60.0467087  34.3570742  24.6742353  61.0446648
  31.4324551  20.1862332  58.1646012  32.2785746  20.6101746  58.3080661
  31.3723188  19.5295957  58.8584575  35.4022295  25.8090916  54.5464744
  34.7731158  25.9736630  53.8440812  35.0147957  26.2232526  55.3175708
  39.2811527  26.7445354  51.9009108  38.5962565  27.1244255  51.3506141
  39.3655377  27.3540681  52.6341055  34.5823996  17.8466701  59.8227186
  34.3384928  18.6008761  59.2861461  34.8583927  18.2252048  60.6574433
  36.5362459  24.3905313  58.5004451  36.7479354  25.0337073  57.8238832
  36.4892207  23.5567630  58.0326381  34.1388688  17.0023134  55.4041023
  33.2773167  17.3004387  55.6957761  34.1651122  17.2193533  54.4722056
  30.9550257  25.5465324  51.8114829  31.4188603  25.8253027  51.0219451
  30.6907055  24.6448769  51.6287920  27.8474338  25.0936806  54.7494592
  28.4175695  25.5224074  54.1112077  28.4382450  24.8119390  55.4478778
  29.8919143  21.6688477  48.6204394  30.5943187  22.1209520  49.0878320
  29.5599772  21.0272295  49.2484287  28.3399505  20.2600233  62.9955603
  27.7098165  20.9416514  63.2291000  28.2335593  20.1483315  62.0508742
  23.6344477  19.9272029  53.9221528  22.8443531  20.1829558  53.4461638
  24.1255725  20.7420367  54.0273568  37.6508287  27.2677268  56.6726808
  38.4725731  26.8657456  56.3909490  37.6470690  27.1645503  57.6242924
  25.5859223  20.2916609  50.8805004  24.7890386  20.4035303  51.3988500
  25.3584815  20.6303261  50.0145895  31.4164890  26.8161312  58.8287519
  31.4809323  27.2781719  59.6645691  30.7075814  26.1858677  58.9569829
  21.9182180  20.1802520  56.3536518  22.1690219  21.0649530  56.6194094
  22.4541729  20.0007121  55.5811610  45.7414280  23.6116017  53.0211780
  44.9877988  23.0423415  52.8655784  45.8761821  23.5778681  53.9682415
  31.1312908  28.4829419  48.6966499  30.9958583  29.3280955  49.1251347
  31.6722720  28.6848697  47.9332433  27.6180248  14.5620999  65.3580855
  27.2247193  14.0087198  66.0328499  28.4346388  14.8731578  65.7487372
  24.5842305  26.0004857  49.2694424  25.0966826  26.7948108  49.4199989
  25.2365018  25.3031148  49.2028026  26.3937190  29.1170614  51.3517178
  26.5703818  30.0388578  51.1638161  27.1894023  28.8029033  51.7811557
  30.5348209  15.9778878  62.9501111  31.2757922  16.5786031  62.8705574
  30.7666131  15.2356516  62.3919154  25.6789547  21.1635245  61.2279341
  25.5643062  20.2620503  61.5286440  24.8234064  21.4098942  60.8764157
  32.7581384  29.1052986  62.8266841  32.3145238  28.3189364  62.5087746
  33.4198598  29.2932136  62.1610732  27.5168505  30.6348787  57.3527520
  28.0675931  30.5065851  56.5804514  26.6779981  30.9343676  57.0022413
  34.8562622  29.3855786  60.8548243  34.8381098  30.2064667  60.3628512
  35.7782542  29.2609861  61.0798384  31.3135676  26.8999915  61.6971751
  31.8464013  26.1388203  61.4671059  30.7849758  26.6073567  62.4395906
  34.4805371  12.0059981  57.2265393  34.1369641  12.8961623  57.1504503
  34.8484334  11.8161639  56.3634978  22.5491222  24.3293512  50.0453995
  23.3866444  24.7390520  49.8287703  22.7269490  23.3892954  50.0154189
  34.4455654  21.9968592  45.7337828  33.9302278  22.7673197  45.9726215
  34.1732963  21.3233728  46.3570889  32.0302765  16.8418293  50.7923066
  31.1744362  16.4525143  50.6128705  32.4429717  16.9210254  49.9322852
  33.5601912  14.3764636  55.1914626  33.0566707  14.3394771  54.3782431
  33.8532519  15.2857379  55.2511283  29.8044798  14.4603366  54.1980808
  30.6697794  14.2646175  53.8386697  29.8722307  14.2313718  55.1250165
  39.4189928  24.7500947  47.6691001  38.6419371  24.4112106  47.2246163
  40.0981409  24.7553570  46.9945966  34.2341957  19.8695684  47.5597609
  33.9292093  20.1841834  48.4107752  35.1872399  19.9477104  47.6024942
  32.6788389  26.0285908  49.2090563  32.1509751  25.2938667  48.8963800
  32.1775892  26.8060584  48.9630531  37.6581235  24.2234928  54.3257609
  37.0004910  24.9134190  54.4137738  38.4621634  24.6131360  54.6691596
  27.4107117  16.6905574  51.5697175  27.9850869  16.4680755  50.8370368
  27.9978099  16.7594268  52.3225776  36.4686694  22.5779301  52.3761551
  36.9818576  23.2109293  52.8783261  37.1187918  21.9780496  52.0104911
  27.7376704  18.7210035  45.5893060  26.9014016  19.0584721  45.9102335
  27.5981474  18.5859015  44.6520197  29.7129785  13.5646823  50.2972244
  29.0594197  13.2495840  49.6728859  29.6710259  12.9422563  51.0232067
  30.8240989  23.8466118  42.2125536  29.9168051  23.6155371  42.4116685
  31.3212021  23.0503737  42.3999518  33.7309068  32.5563625  45.1322222
  33.0570767  32.8595322  45.7407180  34.1174890  33.3592705  44.7827679
  32.9467525  20.0528756  54.6219892  32.0290086  20.2743703  54.4641580
  33.3627668  20.1275067  53.7631599  33.7302573  21.4520172  49.7522572
  34.4774392  21.9641569  49.4429694  33.9994162  21.1304225  50.6126965
  32.0029223  23.9478713  46.7349526  31.0940442  23.6637746  46.8321996
  32.0324307  24.3677791  45.8752833  37.2348490  27.5585302  50.5040694
  36.7810817  26.7176212  50.5605884  36.6042457  28.1946701  50.8415474
  36.1781410  18.4877288  51.7341361  35.4404167  17.9754675  52.0651604
  36.4308183  18.0477670  50.9224638  35.6781429  29.3961799  51.4390512
  35.9704404  29.9566856  50.7202877  36.1880050  29.6890360  52.1943671
  36.2793037  11.2653540  52.3283130  36.5851914  10.4050904  52.0409046
  37.0045642  11.8571161  52.1282124  22.5717393  21.6684227  50.7164728
  22.3741793  21.0753588  49.9915795  22.0164057  21.3636437  51.4340667
  30.5514117  21.5607333  52.8359322  30.6062727  20.6081170  52.7601798
  29.7405319  21.7166772  53.3200620  31.7005311  25.4887456  44.0737605
  31.2624741  24.7723315  43.6143242  32.4415751  25.7163571  43.5122696
  28.4906477  20.1784393  50.5949700  27.6774342  20.4778564  51.0014893
  28.9865471  19.7840082  51.3124183  30.6415055  30.1742150  52.5283965
  30.5991233  30.4002996  51.5992497  31.5577754  29.9405525  52.6769766
  34.0880688  20.6426218  59.4264594  34.4430076  20.8697691  60.2859060
  34.7352820  20.9744594  58.8041850  39.8178425  23.7644653  50.1313923
  39.6796324  23.9546249  49.2035113  39.4614644  24.5264036  50.5881974
  27.9820552  17.7502749  56.2110935  28.6219931  17.6091508  55.5133899
  27.1498082  17.4637262  55.8349537  39.8447805  25.8321180  55.1425195
  40.2784312  25.7396470  55.9908249  40.5579386  25.8078681  54.5045211
  28.7580855  27.0505179  52.3245928  29.5521454  26.5555499  52.1228503
  28.0472548  26.5223042  51.9613633  33.5775700  29.4323275  56.6758295
  33.6312722  30.0014211  57.4436011  32.7090481  29.6025160  56.3112333
  25.0663619  21.1948261  48.4005680  24.1361207  21.1332716  48.6175643
  25.1621091  20.6724214  47.6042322  24.9849168  17.7203074  50.9883922
  25.2455985  18.6348407  50.8793083  25.8066340  17.2527516  51.1380535
  26.4574093  19.1340831  58.1582747  27.1297147  18.9258193  57.5095396
  25.6303880  18.9362917  57.7187979  40.7063355  25.8744881  57.6758080
  40.8999245  26.7790692  57.9217355  40.6063973  25.4152300  58.5096665
  32.3599665  15.7602772  60.1748408  31.7127580  16.4592721  60.0812884
  33.1300681  16.1938916  60.5424656  35.7678463  26.0251624  63.2498961
  35.6163970  25.7962176  62.3329045  35.7583143  26.9822225  63.2630306
  32.5363800  23.5983537  58.2345227  33.4655860  23.7494696  58.0614195
  32.1154830  23.6867557  57.3793874  31.3352131  27.6234201  56.0043765
  31.1963217  27.2552985  56.8769703  30.5466728  28.1381840  55.8327723
  31.9300283  32.7243298  47.3469301  32.1052039  32.2531341  48.1614924
  31.2433071  33.3509064  47.5750562  32.8857347  27.0015804  53.3932603
  32.5507179  26.9616574  54.2890253  32.3861292  26.3360520  52.9203013
  26.8601591  22.4083434  58.9185184  26.7221388  21.6763673  59.5196723
  27.7706514  22.3192334  58.6369372  35.8216538  24.3471838  43.6669662
  35.2045709  23.6218666  43.5702715  35.3533027  25.1081198  43.3236737
  29.4883891  22.1203393  58.4068863  30.1983510  21.4796585  58.3655482
  29.4453199  22.3716288  59.3295044  37.4770670  29.0570746  61.3275443
  37.4183216  28.3729967  60.6606026  37.8790188  29.7989736  60.8756069
  28.2012825  19.1068611  60.2264503  27.6650182  18.6559349  60.8786099
  27.6129534  19.2414520  59.4834967  26.4961369  35.8732660  54.1209162
  26.7357967  36.5051184  54.7988180  25.6530565  35.5220700  54.4074521
  27.6115084  18.5657262  42.7890967  26.7344550  18.4446063  42.4253213
  28.0872837  17.7743341  42.5369855  37.4788077  27.0210330  59.5589422
  36.5914856  26.6836252  59.6815821  38.0486628  26.2893362  59.7958188
  19.1317224  23.3534422  52.8832474  19.8188264  23.0396152  52.2953489
  18.9765353  24.2575787  52.6099725  23.9351946  18.2424619  57.3117497
  23.8510135  17.6350288  56.5767907  23.1134653  18.7333637  57.3126994
  31.0089231  31.6811783  56.5250666  30.9359402  32.4866754  57.0369970
  30.5666624  31.8803749  55.6998687  30.7979010  30.9183553  50.0353487
  30.0146532  31.4605233  50.1291712  31.4971755  31.4357532  50.4347728
  34.1075660  16.7278182  52.6787693  34.6044360  15.9748145  52.3588763
  33.3362642  16.7642499  52.1130902  41.9605418  22.4318548  54.3205984
  41.9495294  23.3143263  53.9499917  41.0922797  22.0790099  54.1260521
  33.4687914  31.5798617  58.6808824  34.1815886  32.2146082  58.6084726
  32.9777943  31.6762483  57.8648826  35.1905441  25.4849869  50.2526116
  34.2561720  25.6051332  50.0830820  35.3682109  24.5822336  49.9886126
  30.6910629  18.8695565  52.4059377  30.3208417  18.3166606  53.0940283
  31.1869721  18.2653699  51.8534377  38.5777992  21.3267189  50.7876150
  39.0438445  22.1595180  50.7136453  39.0285493  20.8612170  51.4921409
  28.5199828  29.3293060  59.5014395  29.2209287  29.9629543  59.6543789
  28.0494943  29.6707792  58.7410034  36.6454223  27.6711010  47.7862302
  36.9214067  27.5567605  48.6956176  35.7758722  27.2728495  47.7474475
  36.5494655  13.6947776  54.8267051  35.6357735  13.9252003  54.9949258
  36.9787757  13.7786220  55.6781084  36.3201114  21.8837668  57.3266945
  35.6672564  22.1313575  56.6719398  36.6981493  21.0701806  56.9929423
  33.2808287  31.9197361  51.4295116  33.4630682  31.1019017  51.8922868
  34.1041273  32.1365053  50.9920006  33.6150453  30.8465546  48.6910164
  34.1438219  30.3358001  48.0780326  33.8778673  30.5308076  49.5555697
  32.3688687  22.6257479  63.8132982  31.6929324  22.5251608  64.4835358
  33.1916320  22.4696692  64.2768980  24.1167546  28.8629415  56.4345498
  24.7020982  28.1173103  56.5673402  23.9192384  29.1733372  57.3182162
  26.9706201  31.8980663  51.4507940  26.3016576  32.3826790  50.9671980
  26.8319071  32.1449883  52.3651319  18.7085200  21.4335015  55.1549941
  18.7469300  20.8998606  55.9487059  18.2025493  20.9070221  54.5360918
  31.1111469  33.9324406  58.0490598  31.6629778  34.0956028  58.8139684
  31.4517663  34.5228844  57.3770623  26.0875963  16.2799556  58.6512483
  26.1517289  17.1414387  58.2389881  26.0243083  15.6673558  57.9184842
  25.5628235  18.3522689  62.2985517  26.1900274  17.9699766  62.9123042
  24.7056154  18.1336890  62.6641210  35.9622344  28.7585664  63.9039253
  36.5062248  29.3715622  63.4094208  35.3809189  29.3165242  64.4206266
  22.3393778  20.1599118  48.2303872  22.6347219  19.2509796  48.1770926
  21.4381814  20.1386857  47.9084875  34.2479857  31.8806382  55.0354281
  34.1230996  31.0796122  54.5265226  34.9058948  32.3752575  54.5468251
  25.8688025  18.2355114  54.2131421  25.1474611  18.8491082  54.0738894
  26.6581281  18.7712879  54.1348067  36.3114765  29.6815402  56.6633831
  35.3645101  29.5620753  56.5912157  36.6597538  28.7937900  56.7460092
  28.6714339  15.5709541  60.4872073  29.1948740  15.8171837  61.2498382
  28.4526672  16.4029576  60.0675210  24.0681620  17.8413215  48.3543197
  23.7394326  16.9610594  48.1718303  24.4220990  17.7860884  49.2419587
  33.3161198  29.4768118  52.8638183  33.1686161  28.5484825  53.0445753
  34.1414692  29.4988209  52.3795258  27.1823443  18.1286185  48.7218675
  27.5219515  18.6572106  47.9997283  27.6295563  18.4666591  49.4977242
  36.9195320  30.2996677  53.9503056  37.8441868  30.0939538  53.8127507
  36.7510624  30.0513078  54.8592397  29.8766884  16.5123236  58.1721743
  29.5363704  15.7131049  58.5742423  29.1705890  16.8124947  57.5998576
  30.5283355  13.5972548  56.6249066  31.3509425  13.1233026  56.5027957
  30.7721419  14.3763032  57.1247752  29.1691590  16.6260807  46.9211968
  29.8899952  17.0042059  46.4175685  28.5456894  17.3449684  47.0246946
  33.3122713  17.3305956  47.8570300  33.5286327  18.2130594  47.5559128
  32.8316780  16.9392169  47.1275942  28.0521934  20.2891669  54.4341045
  27.9066515  20.6031972  55.3265326  27.5747138  20.9076569  53.8811943
  29.9118317  17.2794217  54.4821934  29.8979886  16.3835310  54.1454232
  30.6290745  17.2864881  55.1160220  31.7644448  17.7131557  56.5275062
  31.5062226  18.6348628  56.5259392  31.2329488  17.3161992  57.2175526
  36.7090636  30.8182344  49.3065147  36.8827514  30.2528767  48.5539000
  37.2019528  31.6183239  49.1244637  22.5267596  22.8297013  57.3728706
  21.9821064  23.6056821  57.5048980  23.4046946  23.1767818  57.2147827
  29.3155213  16.1608597  49.7509504  29.4371124  15.2325243  49.9500392
  29.0257255  16.1747283  48.8387820  32.1846403  13.8463508  52.8876224
  32.2068100  13.9102841  51.9328204  32.6014462  13.0068016  53.0816730
  42.5630028  23.5818767  50.9255447  43.0061174  22.8326092  50.5274570
  41.6856538  23.5728904  50.5429179  37.6965809  30.1349109  46.4062045
  38.3916714  30.7555801  46.6249360  38.0388959  29.2844460  46.6814423
  23.3133618  21.9566910  60.2658863  22.5715354  22.1049545  60.8523493
  22.9926362  22.2175175  59.4025612  39.5957232  27.5848814  47.9349376
  40.1208556  27.9236087  47.2098696  39.5079585  26.6495829  47.7512511
  31.2577281  31.4982888  60.0639253  31.5664407  31.2532035  60.9361952
  32.0552763  31.7029526  59.5758123  31.2797893  33.6520797  52.2944629
  30.8402883  33.1597176  52.9877486  32.0306010  33.1093765  52.0536705
  23.7590232  29.8432338  52.2969257  24.5848252  29.5436110  51.9167901
  23.4084284  29.0739961  52.7459046  28.7271765  29.1958806  54.3666931
  28.1051774  28.5329512  54.0669159  29.3976632  29.2219938  53.6840579
  21.9598837  27.7618665  53.2558191  21.1230745  27.3340839  53.0742192
  21.9322482  27.9551108  54.1928982  28.7996292  17.6740595  63.9599437
  28.8484448  18.5502717  63.5777207  29.3418807  17.1317988  63.3871080
  39.2851138  28.2181718  63.2400574  38.4946682  28.2005857  62.7005074
  39.0484493  28.7570011  63.9949611  39.4049013  25.0674184  60.5533303
  39.4547018  24.9024192  61.4948825  39.2962937  24.2001443  60.1631183
  28.2885272  27.7462730  47.8425392  28.4373392  28.4298194  47.1892064
  29.0951715  27.7267820  48.3574847  36.6952776  21.0505112  61.8692609
  37.5962638  20.9111577  61.5776607  36.7700750  21.2159567  62.8090787
  31.0295581  18.4271967  60.7145796  30.1598890  18.7205533  60.4428384
  31.2655061  19.0112412  61.4353059  40.9067210  27.4871126  60.7975324
  40.6152018  27.8501106  61.6338785  40.2939341  26.7738134  60.6188656
  42.1062892  25.0524005  53.3177894  42.9409784  25.4913810  53.4815455
  42.2422021  24.5762659  52.4986140  39.1554398  22.6103740  59.2655382
  39.6308520  22.8031387  58.4574234  38.2319964  22.6662926  59.0198766
  26.0437905  23.7727907  48.8486461  25.7983947  22.8690237  49.0466671
  26.2133819  23.7745058  47.9065939  33.7334615  14.6451584  58.2311216
  34.2516559  15.3812611  57.9057705  33.3789748  14.9515577  59.0657975
  25.3133552  19.5056265  46.3472622  24.6202797  19.5800620  45.6912658
  25.0685304  18.7416609  46.8694139  33.9847209  11.0651866  53.7512113
  34.2648963  10.3975055  54.3772539  34.7697816  11.2580962  53.2386777
  31.7880677  30.2410860  45.3137139  31.2154645  30.8601047  44.8607611
  32.3613471  30.7910222  45.8477061  37.8556067  19.4869500  57.4983688
  38.8073490  19.5867598  57.5195912  37.6859518  18.6947769  58.0081772
  35.8770447  16.5725084  57.6843089  35.2820379  16.8530096  56.9889577
  35.5920143  17.0618985  58.4559830  35.0077937  30.5248010  46.4445721
  35.9408610  30.4593572  46.6478597  34.9201150  31.3604277  45.9860254
  37.6365954  29.8413881  43.4049669  37.5579585  29.5073744  44.2985427
  38.4575621  30.3335649  43.4041141  40.3344145  22.7075620  56.6125987
  40.3020465  21.7691621  56.7985671  40.9444769  22.7859657  55.8791812
  32.1727476  21.5771673  42.6553192  33.1186581  21.4477881  42.7241610
  31.7941721  20.8386335  43.1322620  40.4838634  19.4986663  56.6584271
  39.9677682  18.7145120  56.4714200  41.3678582  19.1705380  56.8230790
  38.1449360  13.2427679  52.6180083  37.9474182  12.9342767  53.5023415
  38.7549066  13.9689318  52.7478013  46.1520695  23.7691627  55.7532024
  46.8824083  23.5076915  56.3139728  45.5427640  23.0320349  55.7934092
  44.2335992  21.9099489  56.3506475  43.5069156  21.7755454  55.7422967
  43.8183279  22.2176318  57.1563194  32.0566168  25.6289419  64.1153849
  32.9769178  25.8068018  64.3093895  32.0215751  24.6845465  63.9633548
  30.3570393  19.5021649  42.5908077  29.4501848  19.2054762  42.6670790
  30.6346374  19.2051468  41.7242363  21.2748333  20.8228013  53.0407123
  20.9551118  19.9693321  52.7481497  20.7281762  21.0376591  53.7965090
  25.0528241  23.5390454  56.7576630  25.2714251  24.4707562  56.7764663
  25.4654015  23.1798428  57.5431433  31.9732459  14.0458539  48.7452318
  31.1633187  13.7005624  49.1207564  32.6616876  13.7366083  49.3339930
  33.9023007  13.1236586  50.3676615  34.4554046  13.5432039  51.0266638
  34.1393093  12.1972334  50.4099571  29.9256106  19.1123660  66.1479379
  29.8252833  20.0618017  66.0791470  29.7077648  18.7841898  65.2755449
  29.1269178  16.3608585  42.7320056  29.9888342  16.6863483  42.9915873
  29.3119522  15.5740081  42.2193122  21.1436593  24.4430924  55.0100245
  20.4500065  24.0284877  54.4970199  21.8909584  24.4851461  54.4133664
  37.2801814  15.2337111  49.8755279  36.7000483  15.8921915  49.4933331
  37.0137747  14.4114456  49.4642696  35.7305381  14.6342169  52.0776599
  36.2305159  14.7458703  51.2690918  36.3740988  14.3303222  52.7177408
  29.7887376  22.5420798  64.9644440  29.3054458  23.3421159  65.1708329
  29.8748315  22.5528743  64.0111884  23.0573336  24.3749178  52.8866260
  23.0344024  24.4736865  51.9348143  23.3673972  25.2214329  53.2083426
  25.7160714  26.4325333  57.0012874  26.6703967  26.4009275  56.9342806
  25.5173237  25.9715957  57.8163100  26.3060096  25.0026449  59.5683672
  27.1252985  25.4970528  59.5918509  26.5796904  24.0858417  59.5401239
  36.0626692  17.3937201  48.9311627  35.1752547  17.6786852  48.7131822
  36.4780681  17.2330965  48.0838904  39.4141228  17.4183722  52.6465966
  40.1901618  17.9080175  52.9190583  38.6889362  17.8441777  53.1037836
  41.8513787  18.1311342  53.7039907  42.4458278  17.8907078  52.9933215
  41.9240371  17.4118472  54.3313443  24.0710943  31.9744953  54.0183072
  23.9365411  31.2145354  53.4521070  23.6543005  32.6985852  53.5511861
  35.2069906  27.1581876  43.0259647  35.9105756  27.3631879  43.6417303
  34.4832554  27.7258638  43.2908731  36.0367716  22.9091737  49.1461917
  35.9802917  23.3660289  48.3069550  36.5896058  22.1482422  48.9684760
  39.8472522  18.6981469  49.9712037  39.5909456  18.2978105  50.8020245
  39.2225390  19.4125263  49.8462176  44.1584860  21.4377543  52.4783328
  43.5984418  21.5070732  53.2514890  43.5528363  21.2618527  51.7582825
  27.2280069  32.8714270  54.2301515  27.1112453  33.8159702  54.1280205
  26.4072515  32.5687831  54.6187314  37.1156603  27.5964405  45.0758107
  37.9502207  27.1645604  44.8935582  36.9540946  27.4246419  46.0035002
  36.7702495  24.0996519  46.4414447  36.7151299  23.9340790  45.5002891
  36.1448551  24.8072552  46.5976636  21.5595010  19.3364583  60.2675869
  22.2053874  18.8263537  60.7563094  21.3512161  20.0733265  60.8419294
  34.0848402  26.4045431  65.7668009  34.9539562  26.5786083  65.4054644
  33.6055154  27.2239847  65.6443739  30.0798621  13.6004628  46.0199765
  30.0677291  14.5446468  46.1768036  30.9722043  13.4174773  45.7259226
  28.2534583  33.5242532  57.4457443  29.1561829  33.5566142  57.7623938
  28.0271953  32.5942982  57.4603779  30.0088185  32.2773518  54.1067522
  29.0583816  32.2775380  53.9931894  30.3120671  31.5306253  53.5903556
  33.8950740  10.1947404  50.2745702  33.1283136   9.6405891  50.4202384
  34.3061445  10.2669273  51.1359853  25.8992501  16.4832200  64.3650883
  26.7623963  16.1269005  64.5754208  25.3257912  16.1446095  65.0526287
  40.2538864  36.8349732  44.4391749  40.5064385  36.3131253  43.6775212
  39.3163423  36.6715877  44.5418432  42.1885523  35.6267049  62.6322326
  41.4118857  36.1860970  62.6225191  42.8276086  36.1123832  63.1537197
  39.1793259  35.5892151  62.9955603  38.5491920  36.2708432  63.2291000
  39.0729347  35.4775233  62.0508742  34.4738232  35.2563947  53.9221528
  33.6837286  35.5121476  53.4461638  34.9649479  36.0712285  54.0273568
  36.4252977  35.6208526  50.8805004  35.6284140  35.7327220  51.3988500
  36.1978569  35.9595178  50.0145895  32.7575935  35.5094437  56.3536518
  33.0083973  36.3941447  56.6194094  33.2935483  35.3299039  55.5811610
  38.4574002  29.8912917  65.3580855  38.0640948  29.3379115  66.0328499
  39.2740142  30.2023495  65.7487372  41.3741963  31.3070796  62.9501111
  42.1151676  31.9077949  62.8705574  41.6059886  30.5648434  62.3919154
  36.5183301  36.4927163  61.2279341  36.4036816  35.5912420  61.5286440
  35.6627819  36.7390860  60.8764157  45.3199126  27.3351899  57.2265393
  44.9763395  28.2253540  57.1504503  45.6878089  27.1453556  56.3634978
  33.3884977  39.6585429  50.0453995  34.2260199  40.0682438  49.8287703
  33.5663244  38.7184871  50.0154189  44.3995666  29.7056554  55.1914626
  43.8960462  29.6686689  54.3782431  44.6926273  30.6149297  55.2511283
  40.6438552  29.7895284  54.1980808  41.5091549  29.5938092  53.8386697
  40.7116061  29.5605635  55.1250165  38.2500871  32.0197492  51.5697175
  38.8244623  31.7972673  50.8370368  38.8371854  32.0886186  52.3225776
  38.5770458  34.0501953  45.5893060  37.7407771  34.3876639  45.9102335
  38.4375228  33.9150932  44.6520197  40.5523539  28.8938741  50.2972244
  39.8987951  28.5787758  49.6728859  40.5104013  28.2714481  51.0232067
  41.6634744  39.1758036  42.2125536  40.7561806  38.9447289  42.4116685
  42.1605776  38.3795655  42.3999518  47.1186792  26.5945458  52.3283130
  47.4245668  25.7342821  52.0409046  47.8439396  27.1863078  52.1282124
  33.4111148  36.9976145  50.7164728  33.2135547  36.4045505  49.9915795
  32.8557812  36.6928355  51.4340667  39.3300231  35.5076311  50.5949700
  38.5168097  35.8070481  51.0014893  39.8259225  35.1132000  51.3124183
  38.8214306  33.0794666  56.2110935  39.4613685  32.9383425  55.5133899
  37.9891837  32.7929180  55.8349537  35.9057373  36.5240178  48.4005680
  34.9754961  36.4624634  48.6175643  36.0014845  36.0016131  47.6042322
  35.8242922  33.0494991  50.9883922  36.0849740  33.9640325  50.8793083
  36.6460095  32.5819434  51.1380535  37.2967848  34.4632748  58.1582747
  37.9690901  34.2550111  57.5095396  36.4697634  34.2654834  57.7187979
  43.1993420  31.0894689  60.1748408  42.5521335  31.7884639  60.0812884
  43.9694435  31.5230833  60.5424656  39.0406580  34.4360529  60.2264503
  38.5043937  33.9851267  60.8786099  38.4523288  34.5706438  59.4834967
  38.4508839  33.8949180  42.7890967  37.5738305  33.7737981  42.4253213
  38.9266592  33.1035258  42.5369855  29.9710979  38.6826340  52.8832474
  30.6582019  38.3688070  52.2953489  29.8159107  39.5867704  52.6099725
  34.7745701  33.5716536  57.3117497  34.6903890  32.9642206  56.5767907
  33.9528407  34.0625555  57.3126994  29.5478955  36.7626933  55.1549941
  29.5863054  36.2290524  55.9487059  29.0419248  36.2362139  54.5360918
  36.9269717  31.6091474  58.6512483  36.9911044  32.4706305  58.2389881
  36.8636837  30.9965475  57.9184842  36.4021990  33.6814606  62.2985517
  37.0294029  33.2991684  62.9123042  35.5449909  33.4628808  62.6641210
  33.1787532  35.4891035  48.2303872  33.4740974  34.5801714  48.1770926
  32.2775568  35.4678775  47.9084875  36.7081779  33.5647032  54.2131421
  35.9868365  34.1783000  54.0738894  37.4975035  34.1004797  54.1348067
  39.5108093  30.9001458  60.4872073  40.0342495  31.1463755  61.2498382
  39.2920426  31.7321493  60.0675210  34.9075374  33.1705133  48.3543197
  34.5788080  32.2902512  48.1718303  35.2614745  33.1152802  49.2419587
  38.0217197  33.4578103  48.7218675  38.3613270  33.9864024  47.9997283
  38.4689318  33.7958509  49.4977242  40.7160638  31.8415154  58.1721743
  40.3757458  31.0422967  58.5742423  40.0099644  32.1416864  57.5998576
  41.3677110  28.9264466  56.6249066  42.1903179  28.4524944  56.5027957
  41.6115173  29.7054950  57.1247752  40.0085344  31.9552724  46.9211968
  40.7293707  32.3333977  46.4175685  39.3850648  32.6741601  47.0246946
  40.7512071  32.6086135  54.4821934  40.7373640  31.7127228  54.1454232
  41.4684500  32.6156798  55.1160220  40.1548967  31.4900515  49.7509504
  40.2764879  30.5617161  49.9500392  39.8651010  31.5039201  48.8387820
  43.0240158  29.1755425  52.8876224  43.0461855  29.2394758  51.9328204
  43.4408217  28.3359934  53.0816730  39.6390047  33.0032512  63.9599437
  39.6878202  33.8794635  63.5777207  40.1812561  32.4609905  63.3871080
  44.5728369  29.9743502  58.2311216  45.0910313  30.7104528  57.9057705
  44.2183502  30.2807495  59.0657975  36.1527307  34.8348183  46.3472622
  35.4596552  34.9092538  45.6912658  35.9079059  34.0708526  46.8694139
  44.8240963  26.3943784  53.7512113  45.1042717  25.7266973  54.3772539
  45.6091570  26.5872880  53.2386777  41.1964148  34.8313567  42.5908077
  40.2895603  34.5346680  42.6670790  41.4740129  34.5343385  41.7242363
  32.1142088  36.1519931  53.0407123  31.7944872  35.2985239  52.7481497
  31.5675516  36.3668509  53.7965090  42.8126213  29.3750457  48.7452318
  42.0026942  29.0297542  49.1207564  43.5010630  29.0658001  49.3339930
  44.7416762  28.4528504  50.3676615  45.2947800  28.8723957  51.0266638
  44.9786848  27.5264252  50.4099571  40.7649861  34.4415577  66.1479379
  40.6646588  35.3909934  66.0791470  40.5471403  34.1133816  65.2755449
  39.9662932  31.6900502  42.7320056  40.8282096  32.0155401  42.9915873
  40.1513276  30.9031998  42.2193122  32.3988765  34.6656501  60.2675869
  33.0447628  34.1555455  60.7563094  32.1905916  35.4025182  60.8419294
  40.9192375  28.9296545  46.0199765  40.9071045  29.8738385  46.1768036
  41.8115797  28.7466691  45.7259226  44.7344495  25.5239322  50.2745702
  43.9676890  24.9697809  50.4202384  45.1455200  25.5961191  51.1359853
  36.7386256  31.8124118  64.3650883  37.6017717  31.4560923  64.5754208
  36.1651666  31.4738013  65.0526287  65.6704468  74.2451764  46.4086165
  65.0192448  74.8305844  46.0220178  66.4648831  74.7757959  46.4681202
  67.1479733  71.9342196  46.9455149  66.5125566  72.0076823  47.6576053
  66.8177139  72.5235795  46.2674228  61.3755802  79.1123019  49.9760960
  61.2979832  80.0630844  50.0549440  60.7717446  78.7668892  50.6335886
  67.5974744  71.2365479  60.7912455  68.0058100  70.7947889  60.0467087
  66.8752006  70.6618106  61.0446648  67.9203559  71.7966669  54.5464744
  67.2912421  71.9612383  53.8440812  67.5329221  72.2108279  55.3175708
  71.7992791  72.7321107  51.9009108  71.1143829  73.1120008  51.3506141
  71.8836640  73.3416434  52.6341055  69.0543722  70.3781066  58.5004451
  69.2660618  71.0212826  57.8238832  69.0073471  69.5443383  58.0326381
  70.1689550  73.2553022  56.6726808  70.9906994  72.8533209  56.3909490
  70.1651953  73.1521256  57.6242924  78.2595543  69.5991770  53.0211780
  77.5059252  69.0299168  52.8655784  78.3943085  69.5654434  53.9682415
  63.6494171  74.4705172  48.6966499  63.5139846  75.3156708  49.1251347
  64.1903984  74.6724450  47.9332433  65.2762648  75.0928739  62.8266841
  64.8326502  74.3065117  62.5087746  65.9379861  75.2807889  62.1610732
  60.0349769  76.6224540  57.3527520  60.5857194  76.4941604  56.5804514
  59.1961245  76.9219429  57.0022413  67.3743886  75.3731539  60.8548243
  67.3562361  76.1940420  60.3628512  68.2963806  75.2485614  61.0798384
  71.9371192  70.7376700  47.6691001  71.1600635  70.3987859  47.2246163
  72.6162673  70.7429323  46.9945966  65.1969653  72.0161661  49.2090563
  64.6691014  71.2814420  48.8963800  64.6957155  72.7936337  48.9630531
  70.1762499  70.2110681  54.3257609  69.5186173  70.9009943  54.4137738
  70.9802898  70.6007113  54.6691596  63.3422253  69.8341871  42.2125536
  62.4349315  69.6031124  42.4116685  63.8393285  69.0379490  42.3999518
  66.2490332  78.5439378  45.1322222  65.5752030  78.8471075  45.7407180
  66.6356154  79.3468458  44.7827679  69.7529754  73.5461055  50.5040694
  69.2992081  72.7051965  50.5605884  69.1223720  74.1822454  50.8415474
  68.1962693  75.3837552  51.4390512  68.4885667  75.9442609  50.7202877
  68.7061314  75.6766113  52.1943671  64.2186574  71.4763209  44.0737605
  63.7806004  70.7599068  43.6143242  64.9597015  71.7039324  43.5122696
  63.1596318  76.1617903  52.5283965  63.1172497  76.3878749  51.5992497
  64.0759017  75.9281278  52.6769766  72.3359689  69.7520407  50.1313923
  72.1977587  69.9422002  49.2035113  71.9795908  70.5139789  50.5881974
  72.3629068  71.8196934  55.1425195  72.7965575  71.7272223  55.9908249
  73.0760649  71.7954434  54.5045211  66.0956963  75.4199028  56.6758295
  66.1493986  75.9889964  57.4436011  65.2271745  75.5900913  56.3112333
  73.2244618  71.8620634  57.6758080  73.4180508  72.7666445  57.9217355
  73.1245236  71.4028053  58.5096665  68.2859727  72.0127377  63.2498961
  68.1345233  71.7837929  62.3329045  68.2764406  72.9697978  63.2630306
  64.4481547  78.7119051  47.3469301  64.6233303  78.2407094  48.1614924
  63.7614335  79.3384817  47.5750562  65.4038610  72.9891557  53.3932603
  65.0688443  72.9492327  54.2890253  64.9042556  72.3236273  52.9203013
  69.9951933  75.0446499  61.3275443  69.9364480  74.3605720  60.6606026
  70.3971452  75.7865489  60.8756069  59.0142632  81.8608413  54.1209162
  59.2539230  82.4926937  54.7988180  58.1711829  81.5096453  54.4074521
  69.9969341  73.0086083  59.5589422  69.1096119  72.6712005  59.6815821
  70.5667892  72.2769115  59.7958188  63.5270494  77.6687536  56.5250666
  63.4540665  78.4742507  57.0369970  63.0847887  77.8679502  55.6998687
  63.3160274  76.9059306  50.0353487  62.5327796  77.4480986  50.1291712
  64.0153019  77.4233285  50.4347728  74.4786681  68.4194301  54.3205984
  74.4676557  69.3019016  53.9499917  73.6104061  68.0665852  54.1260521
  65.9869178  77.5674370  58.6808824  66.6997150  78.2021835  58.6084726
  65.4959206  77.6638236  57.8648826  67.7086704  71.4725622  50.2526116
  66.7742983  71.5927085  50.0830820  67.8863373  70.5698089  49.9886126
  69.1635487  73.6586763  47.7862302  69.4395331  73.5443358  48.6956176
  68.2939986  73.2604248  47.7474475  65.7989551  77.9073114  51.4295116
  65.9811945  77.0894770  51.8922868  66.6222537  78.1240806  50.9920006
  66.1331716  76.8341299  48.6910164  66.6619483  76.3233754  48.0780326
  66.3959936  76.5183829  49.5555697  59.4887464  77.8856416  51.4507940
  58.8197840  78.3702543  50.9671980  59.3500334  78.1325636  52.3651319
  63.6292733  79.9200159  58.0490598  64.1811041  80.0831781  58.8139684
  63.9698926  80.5104597  57.3770623  68.4803607  74.7461417  63.9039253
  69.0243511  75.3591375  63.4094208  67.8990452  75.3040995  64.4206266
  66.7661120  77.8682135  55.0354281  66.6412260  77.0671875  54.5265226
  67.4240211  78.3628328  54.5468251  68.8296029  75.6691155  56.6633831
  67.8826364  75.5496506  56.5912157  69.1778802  74.7813653  56.7460092
  65.8342462  75.4643871  52.8638183  65.6867424  74.5360578  53.0445753
  66.6595955  75.4863962  52.3795258  69.4376584  76.2872430  53.9503056
  70.3623131  76.0815291  53.8127507  69.2691887  76.0388831  54.8592397
  69.2271900  76.8058097  49.3065147  69.4008777  76.2404520  48.5539000
  69.7200791  77.6058992  49.1244637  75.0811291  69.5694520  50.9255447
  75.5242437  68.8201845  50.5274570  74.2037801  69.5604657  50.5429179
  70.2147072  76.1224862  46.4062045  70.9097977  76.7431554  46.6249360
  70.5570223  75.2720213  46.6814423  72.1138496  73.5724567  47.9349376
  72.6389820  73.9111840  47.2098696  72.0260848  72.6371582  47.7512511
  63.7758544  77.4858641  60.0639253  64.0845671  77.2407788  60.9361952
  64.5734026  77.6905279  59.5758123  63.7979156  79.6396550  52.2944629
  63.3584147  79.1472929  52.9877486  64.5487273  79.0969518  52.0536705
  71.8032402  74.2057471  63.2400574  71.0127945  74.1881610  62.7005074
  71.5665756  74.7445764  63.9949611  71.9230277  71.0549937  60.5533303
  71.9728282  70.8899945  61.4948825  71.8144200  70.1877196  60.1631183
  60.8066535  73.7338483  47.8425392  60.9554656  74.4173947  47.1892064
  61.6132979  73.7143573  48.3574847  69.2134039  67.0380865  61.8692609
  70.1143902  66.8987330  61.5776607  69.2882014  67.2035320  62.8090787
  73.4248474  73.4746879  60.7975324  73.1333282  73.8376859  61.6338785
  72.8120605  72.7613887  60.6188656  74.6244156  71.0399758  53.3177894
  75.4591047  71.4789563  53.4815455  74.7603285  70.5638412  52.4986140
  71.6735662  68.5979493  59.2655382  72.1489783  68.7907140  58.4574234
  70.7501227  68.6538679  59.0198766  64.3061941  76.2286613  45.3137139
  63.7335908  76.8476800  44.8607611  64.8794735  76.7785975  45.8477061
  67.5259201  76.5123763  46.4445721  68.4589874  76.4469325  46.6478597
  67.4382414  77.3480030  45.9860254  70.1547217  75.8289634  43.4049669
  70.0760849  75.4949497  44.2985427  70.9756884  76.3211402  43.4041141
  72.8525409  68.6951373  56.6125987  72.8201729  67.7567374  56.7985671
  73.4626032  68.7735410  55.8791812  73.0019897  65.4862417  56.6584271
  72.4858946  64.7020873  56.4714200  73.8859846  65.1581133  56.8230790
  78.6701958  69.7567380  55.7532024  79.4005347  69.4952668  56.3139728
  78.0608904  69.0196102  55.7934092  76.7517256  67.8975243  56.3506475
  76.0250419  67.7631207  55.7422967  76.3364542  68.2052071  57.1563194
  67.7251169  73.1457629  43.0259647  68.4287019  73.3507632  43.6417303
  67.0013818  73.7134391  43.2908731  76.6766123  67.4253296  52.4783328
  76.1165681  67.4946485  53.2514890  76.0709627  67.2494280  51.7582825
  59.7461332  78.8590023  54.2301515  59.6293716  79.8035455  54.1280205
  58.9253778  78.5563584  54.6187314  69.6337867  73.5840158  45.0758107
  70.4683470  73.1521357  44.8935582  69.4722209  73.4122172  46.0035002
  66.6029666  72.3921184  65.7668009  67.4720826  72.5661836  65.4054644
  66.1236417  73.2115600  65.6443739  60.7715846  79.5118285  57.4457443
  61.6743093  79.5441895  57.7623938  60.5453216  78.5818736  57.4603779
  62.5269448  78.2649271  54.1067522  61.5765079  78.2651133  53.9931894
  62.8301934  77.5182006  53.5903556  78.2622142  84.1009810  55.1713284
  78.9000552  83.9816557  54.4676624  78.1442985  85.0490653  55.2301236
  75.0711848  84.0537238  55.1074809  74.7330359  83.9378302  54.2195344
  75.9401616  83.6528403  55.0875815  70.9298664  85.9072714  51.0971700
  70.3663529  85.8162651  50.3287987  70.8151059  85.0872618  51.5774192
  75.5531631  85.2072089  61.0661014  75.5420272  84.8124888  60.1941518
  75.7152270  84.4738162  61.6594786  68.4763096  87.4023906  53.9355920
  69.2684387  87.0614730  53.5202219  68.7159746  87.5118881  54.8558073
  76.5098222  89.5743682  46.4086165  75.8586202  90.1597762  46.0220178
  77.3042585  90.1049877  46.4681202  70.4353849  86.6632819  46.8073299
  71.2084725  86.1161806  46.6686175  70.7879248  87.5277068  47.0187760
  72.2738892  87.9909201  60.0140198  71.9828758  88.8954832  59.8986865
  72.9095876  88.0325729  60.7284268  73.1995099  85.3686050  56.6041558
  73.7958671  85.1442072  55.8898521  73.2570070  84.6270795  57.2067006
  72.7720127  82.8225485  44.4391749  73.0245648  82.3007006  43.6775212
  71.8344686  82.6591630  44.5418432  77.8163410  81.8261263  52.2466492
  78.6026499  81.4080687  51.8956909  78.0802114  82.7307356  52.4148140
  77.9873487  87.2634114  46.9455149  77.3519320  87.3368740  47.6576053
  77.6570894  87.8527712  46.2674228  83.2171837  81.7636497  53.1499471
  83.9497009  81.1935713  53.3837300  82.4611193  81.3758097  53.5905976
  72.4916416  84.7253591  46.6416124  72.3752674  84.0498494  47.3097208
  72.6018676  84.2385965  45.8248277  74.8347957  84.1863738  50.3462813
  74.4706164  83.6594359  51.0575734  75.6915073  83.7962207  50.1729298
  80.7397258  75.4758071  57.6094079  80.4080582  76.3453482  57.3855294
  80.1442871  75.1594355  58.2888110  74.4753444  79.2153638  45.3424162
  74.6427846  80.0833874  45.7094633  74.2850613  79.3780919  44.4185451
  77.2328777  87.6770617  57.0089992  76.9329500  88.5795655  56.9005799
  76.8879837  87.4102800  57.8611145  70.6841259  84.1284413  53.0426696
  69.7591755  83.9960628  53.2504388  70.9325672  84.9078633  53.5396639
  80.6325921  80.1953157  54.6887429  79.7242798  80.1268565  54.3946190
  80.5813517  80.6725102  55.5169255  74.4542665  81.6711295  46.3270828
  74.3342290  82.1168346  47.1656309  73.7595253  82.0196613  45.7684366
  68.0450070  83.7717687  53.8770485  68.1742451  84.0252166  54.7909897
  67.3647521  84.3645395  53.5575140  72.2149557  94.4414937  49.9760960
  72.1373587  95.3922762  50.0549440  71.6111201  94.0960809  50.6335886
  74.7066787  81.6142802  62.6322326  73.9300121  82.1736723  62.6225191
  75.3457350  82.0999585  63.1537197  82.4987567  78.3969595  56.4665303
  81.8561948  78.6902128  55.8205098  81.9942496  78.2822516  57.2718500
  80.1527731  82.1432768  47.1551162  81.0645587  82.3760155  46.9798860
  79.6437378  82.7269813  46.5926241  72.9613159  84.4228256  62.1940293
  73.7027843  84.9613300  61.9175117  72.2550144  85.0494545  62.3511845
  78.4368499  86.5657396  60.7912455  78.8451855  86.1239807  60.0467087
  77.7145760  85.9910024  61.0446648  74.7899569  81.5030003  58.1646012
  75.6360764  81.9269417  58.3080661  74.7298206  80.8463627  58.8584575
  78.7597313  87.1258587  54.5464744  78.1306176  87.2904301  53.8440812
  78.3722975  87.5400196  55.3175708  82.6386545  88.0613025  51.9009108
  81.9537583  88.4411926  51.3506141  82.7230394  88.6708351  52.6341055
  77.9399014  79.1634371  59.8227186  77.6959946  79.9176432  59.2861461
  78.2158945  79.5419719  60.6574433  79.8937477  85.7072984  58.5004451
  80.1054372  86.3504744  57.8238832  79.8467225  84.8735300  58.0326381
  77.4963706  78.3190804  55.4041023  76.6348185  78.6172058  55.6957761
  77.5226140  78.5361203  54.4722056  74.3125275  86.8632995  51.8114829
  74.7763621  87.1420698  51.0219451  74.0482073  85.9616440  51.6287920
  71.2049356  86.4104477  54.7494592  71.7750713  86.8391745  54.1112077
  71.7957468  86.1287061  55.4478778  73.2494161  82.9856147  48.6204394
  73.9518205  83.4377191  49.0878320  72.9174790  82.3439966  49.2484287
  71.6974523  81.5767904  62.9955603  71.0673183  82.2584185  63.2291000
  71.5910611  81.4650986  62.0508742  66.9919495  81.2439700  53.9221528
  66.2018549  81.4997229  53.4461638  67.4830743  82.0588038  54.0273568
  81.0083305  88.5844939  56.6726808  81.8300748  88.1825126  56.3909490
  81.0045708  88.4813173  57.6242924  68.9434241  81.6084279  50.8805004
  68.1465404  81.7202973  51.3988500  68.7159833  81.9470931  50.0145895
  74.7739908  88.1328982  58.8287519  74.8384341  88.5949390  59.6645691
  74.0650832  87.5026347  58.9569829  65.2757198  81.4970190  56.3536518
  65.5265237  82.3817200  56.6194094  65.8116747  81.3174792  55.5811610
  89.0989298  84.9283688  53.0211780  88.3453006  84.3591086  52.8655784
  89.2336839  84.8946352  53.9682415  74.4887926  89.7997090  48.6966499
  74.3533601  90.6448626  49.1251347  75.0297738  90.0016368  47.9332433
  70.9755265  75.8788670  65.3580855  70.5822211  75.3254868  66.0328499
  71.7921406  76.1899248  65.7487372  67.9417323  87.3172528  49.2694424
  68.4541844  88.1115778  49.4199989  68.5940036  86.6198818  49.2028026
  69.7512208  90.4338284  51.3517178  69.9278836  91.3556249  51.1638161
  70.5469041  90.1196703  51.7811557  73.8923226  77.2946549  62.9501111
  74.6332940  77.8953702  62.8705574  74.1241149  76.5524187  62.3919154
  69.0364564  82.4802916  61.2279341  68.9218080  81.5788173  61.5286440
  68.1809082  82.7266613  60.8764157  76.1156402  90.4220656  62.8266841
  75.6720256  89.6357035  62.5087746  76.7773616  90.6099807  62.1610732
  70.8743523  91.9516458  57.3527520  71.4250949  91.8233521  56.5804514
  70.0354999  92.2511347  57.0022413  78.2137640  90.7023456  60.8548243
  78.1956116  91.5232337  60.3628512  79.1357560  90.5777532  61.0798384
  74.6710694  88.2167586  61.6971751  75.2039031  87.4555874  61.4671059
  74.1424776  87.9241238  62.4395906  77.8380389  73.3227652  57.2265393
  77.4944659  74.2129294  57.1504503  78.2059352  73.1329309  56.3634978
  65.9066240  85.6461182  50.0453995  66.7441462  86.0558191  49.8287703
  66.0844508  84.7060624  50.0154189  77.8030672  83.3136263  45.7337828
  77.2877296  84.0840868  45.9726215  77.5307981  82.6401399  46.3570889
  75.3877783  78.1585964  50.7923066  74.5319380  77.7692814  50.6128705
  75.8004735  78.2377925  49.9322852  76.9176930  75.6932307  55.1914626
  76.4141725  75.6562442  54.3782431  77.2107537  76.6025050  55.2511283
  73.1619816  75.7771037  54.1980808  74.0272812  75.5813845  53.8386697
  73.2297325  75.5481388  55.1250165  82.7764946  86.0668618  47.6691001
  81.9994389  85.7279777  47.2246163  83.4556427  86.0721241  46.9945966
  77.5916975  81.1863355  47.5597609  77.2867111  81.5009504  48.4107752
  78.5447417  81.2644775  47.6024942  76.0363407  87.3453578  49.2090563
  75.5084769  86.6106338  48.8963800  75.5350910  88.1228255  48.9630531
  81.0156253  85.5402599  54.3257609  80.3579928  86.2301860  54.4137738
  81.8196652  85.9299031  54.6691596  70.7682135  78.0073245  51.5697175
  71.3425887  77.7848426  50.8370368  71.3553117  78.0761939  52.3225776
  79.8261712  83.8946972  52.3761551  80.3393594  84.5276963  52.8783261
  80.4762936  83.2948167  52.0104911  71.0951722  80.0377706  45.5893060
  70.2589034  80.3752392  45.9102335  70.9556492  79.9026685  44.6520197
  73.0704802  74.8814494  50.2972244  72.4169215  74.5663511  49.6728859
  73.0285277  74.2590234  51.0232067  74.1816007  85.1633789  42.2125536
  73.2743069  84.9323042  42.4116685  74.6787039  84.3671408  42.3999518
  77.0884086  93.8731296  45.1322222  76.4145785  94.1762993  45.7407180
  77.4749908  94.6760376  44.7827679  76.3042543  81.3696427  54.6219892
  75.3865104  81.5911374  54.4641580  76.7202686  81.4442738  53.7631599
  77.0877591  82.7687843  49.7522572  77.8349410  83.2809240  49.4429694
  77.3569180  82.4471895  50.6126965  75.3604241  85.2646383  46.7349526
  74.4515460  84.9805416  46.8321996  75.3899325  85.6845462  45.8752833
  80.5923508  88.8752973  50.5040694  80.1385835  88.0343883  50.5605884
  79.9617475  89.5114371  50.8415474  79.5356428  79.8044959  51.7341361
  78.7979185  79.2922345  52.0651604  79.7883201  79.3645341  50.9224638
  79.0356447  90.7129470  51.4390512  79.3279422  91.2734527  50.7202877
  79.5455068  91.0058031  52.1943671  79.6368055  72.5821211  52.3283130
  79.9426932  71.7218574  52.0409046  80.3620660  73.1738831  52.1282124
  65.9292411  82.9851898  50.7164728  65.7316811  82.3921258  49.9915795
  65.3739075  82.6804108  51.4340667  73.9089135  82.8775004  52.8359322
  73.9637745  81.9248840  52.7601798  73.0980337  83.0334443  53.3200620
  75.0580329  86.8055127  44.0737605  74.6199758  86.0890986  43.6143242
  75.7990769  87.0331242  43.5122696  71.8481495  81.4952064  50.5949700
  71.0349360  81.7946234  51.0014893  72.3440489  81.1007753  51.3124183
  73.9990073  91.4909821  52.5283965  73.9566251  91.7170667  51.5992497
  74.9152771  91.2573195  52.6769766  77.4455706  81.9593888  59.4264594
  77.8005094  82.1865361  60.2859060  78.0927838  82.2912265  58.8041850
  83.1753443  85.0812324  50.1313923  83.0371342  85.2713920  49.2035113
  82.8189662  85.8431707  50.5881974  71.3395569  79.0670419  56.2110935
  71.9794949  78.9259178  55.5133899  70.5073100  78.7804933  55.8349537
  83.2022823  87.1488851  55.1425195  83.6359330  87.0564140  55.9908249
  83.9154404  87.1246352  54.5045211  72.1155873  88.3672850  52.3245928
  72.9096472  87.8723170  52.1228503  71.4047566  87.8390713  51.9613633
  76.9350718  90.7490945  56.6758295  76.9887740  91.3181882  57.4436011
  76.0665499  90.9192830  56.3112333  68.4238637  82.5115932  48.4005680
  67.4936225  82.4500387  48.6175643  68.5196109  81.9891884  47.6042322
  68.3424186  79.0370744  50.9883922  68.6031003  79.9516078  50.8793083
  69.1641358  78.5695187  51.1380535  69.8149111  80.4508502  58.1582747
  70.4872165  80.2425864  57.5095396  68.9878898  80.2530588  57.7187979
  84.0638373  87.1912552  57.6758080  84.2574263  88.0958362  57.9217355
  83.9638991  86.7319971  58.5096665  75.7174683  77.0770442  60.1748408
  75.0702598  77.7760392  60.0812884  76.4875699  77.5106586  60.5424656
  79.1253481  87.3419295  63.2498961  78.9738988  87.1129846  62.3329045
  79.1158161  88.2989896  63.2630306  75.8938818  84.9151207  58.2345227
  76.8230878  85.0662367  58.0614195  75.4729848  85.0035228  57.3793874
  74.6927149  88.9401872  56.0043765  74.5538235  88.5720656  56.8769703
  73.9041746  89.4549511  55.8327723  75.2875301  94.0410968  47.3469301
  75.4627057  93.5699011  48.1614924  74.6008089  94.6676734  47.5750562
  76.2432365  88.3183474  53.3932603  75.9082197  88.2784244  54.2890253
  75.7436310  87.6528190  52.9203013  70.2176608  83.7251104  58.9185184
  70.0796406  82.9931343  59.5196723  71.1281532  83.6360005  58.6369372
  79.1791556  85.6639509  43.6669662  78.5620727  84.9386337  43.5702715
  78.7108045  86.4248869  43.3236737  72.8458909  83.4371064  58.4068863
  73.5558528  82.7964256  58.3655482  72.8028217  83.6883959  59.3295044
  80.8345688  90.3738417  61.3275443  80.7758234  89.6897637  60.6606026
  81.2365206  91.1157407  60.8756069  71.5587843  80.4236282  60.2264503
  71.0225200  79.9727020  60.8786099  70.9704552  80.5582191  59.4834967
  69.8536387  97.1900331  54.1209162  70.0932985  97.8218855  54.7988180
  69.0105583  96.8388371  54.4074521  70.9690102  79.8824933  42.7890967
  70.0919568  79.7613734  42.4253213  71.4447855  79.0911011  42.5369855
  80.8363095  88.3378001  59.5589422  79.9489874  88.0003923  59.6815821
  81.4061646  87.6061032  59.7958188  62.4892242  84.6702093  52.8832474
  63.1763282  84.3563823  52.2953489  62.3340371  85.5743457  52.6099725
  67.2926964  79.5592289  57.3117497  67.2085153  78.9517959  56.5767907
  66.4709671  80.0501308  57.3126994  74.3664249  92.9979453  56.5250666
  74.2934420  93.8034425  57.0369970  73.9241642  93.1971419  55.6998687
  74.1554028  92.2351223  50.0353487  73.3721550  92.7772904  50.1291712
  74.8546773  92.7525203  50.4347728  77.4650678  78.0445853  52.6787693
  77.9619378  77.2915815  52.3588763  76.6937660  78.0810170  52.1130902
  85.3180436  83.7486218  54.3205984  85.3070312  84.6310934  53.9499917
  84.4497815  83.3957769  54.1260521  76.8262932  92.8966287  58.6808824
  77.5390904  93.5313752  58.6084726  76.3352961  92.9930153  57.8648826
  78.5480459  86.8017540  50.2526116  77.6136738  86.9219003  50.0830820
  78.7257127  85.8990007  49.9886126  74.0485647  80.1863236  52.4059377
  73.6783435  79.6334276  53.0940283  74.5444739  79.5821369  51.8534377
  81.9353010  82.6434859  50.7876150  82.4013462  83.4762851  50.7136453
  82.3860511  82.1779841  51.4921409  71.8774846  90.6460731  59.5014395
  72.5784305  91.2797214  59.6543789  71.4069961  90.9875462  58.7410034
  80.0029241  88.9878681  47.7862302  80.2789085  88.8735275  48.6956176
  79.1333740  88.5896166  47.7474475  79.9069673  75.0115446  54.8267051
  78.9932753  75.2419673  54.9949258  80.3362774  75.0953890  55.6781084
  79.6776132  83.2005338  57.3266945  79.0247582  83.4481246  56.6719398
  80.0556511  82.3869477  56.9929423  76.6383305  93.2365032  51.4295116
  76.8205700  92.4186687  51.8922868  77.4616291  93.4532724  50.9920006
  76.9725471  92.1633217  48.6910164  77.5013237  91.6525671  48.0780326
  77.2353690  91.8475747  49.5555697  75.7263705  83.9425149  63.8132982
  75.0504342  83.8419279  64.4835358  76.5491338  83.7864363  64.2768980
  67.4742564  90.1797086  56.4345498  68.0596000  89.4340774  56.5673402
  67.2767402  90.4901043  57.3182162  70.3281219  93.2148333  51.4507940
  69.6591594  93.6994461  50.9671980  70.1894089  93.4617554  52.3651319
  62.0660218  82.7502686  55.1549941  62.1044318  82.2166277  55.9487059
  61.5600511  82.2237892  54.5360918  74.4686487  95.2492077  58.0490598
  75.0204795  95.4123698  58.8139684  74.8092681  95.8396515  57.3770623
  69.4450981  77.5967227  58.6512483  69.5092307  78.4582058  58.2389881
  69.3818101  76.9841228  57.9184842  68.9203253  79.6690359  62.2985517
  69.5475292  79.2867437  62.9123042  68.0631172  79.4504561  62.6641210
  79.3197362  90.0753334  63.9039253  79.8637266  90.6883293  63.4094208
  78.7384207  90.6332913  64.4206266  65.6968796  81.4766788  48.2303872
  65.9922237  80.5677467  48.1770926  64.7956832  81.4554528  47.9084875
  77.6054875  93.1974052  55.0354281  77.4806014  92.3963792  54.5265226
  78.2633966  93.6920246  54.5468251  69.2263043  79.5522785  54.2131421
  68.5049629  80.1658753  54.0738894  70.0156299  80.0880550  54.1348067
  79.6689783  90.9983073  56.6633831  78.7220119  90.8788424  56.5912157
  80.0172556  90.1105571  56.7460092  72.0289356  76.8877211  60.4872073
  72.5523758  77.1339508  61.2498382  71.8101690  77.7197246  60.0675210
  67.4256638  79.1580886  48.3543197  67.0969344  78.2778265  48.1718303
  67.7796008  79.1028555  49.2419587  76.6736216  90.7935789  52.8638183
  76.5261179  89.8652496  53.0445753  77.4989710  90.8155879  52.3795258
  70.5398461  79.4453856  48.7218675  70.8794533  79.9739777  47.9997283
  70.9870581  79.7834262  49.4977242  80.2770338  91.6164347  53.9503056
  81.2016886  91.4107209  53.8127507  80.1085642  91.3680749  54.8592397
  73.2341902  77.8290907  58.1721743  72.8938722  77.0298720  58.5742423
  72.5280908  78.1292617  57.5998576  73.8858373  74.9140219  56.6249066
  74.7084443  74.4400697  56.5027957  74.1296437  75.6930703  57.1247752
  72.5266608  77.9428477  46.9211968  73.2474970  78.3209730  46.4175685
  71.9031912  78.6617354  47.0246946  76.6697731  78.6473626  47.8570300
  76.8861345  79.5298264  47.5559128  76.1891798  78.2559840  47.1275942
  71.4096952  81.6059340  54.4341045  71.2641533  81.9199643  55.3265326
  70.9322156  82.2244240  53.8811943  73.2693335  78.5961888  54.4821934
  73.2554904  77.7002981  54.1454232  73.9865763  78.6032551  55.1160220
  75.1219466  79.0299228  56.5275062  74.8637244  79.9516298  56.5259392
  74.5904506  78.6329662  57.2175526  80.0665654  92.1350015  49.3065147
  80.2402532  91.5696437  48.5539000  80.5594546  92.9350910  49.1244637
  65.8842614  84.1464684  57.3728706  65.3396082  84.9224492  57.5048980
  66.7621964  84.4935488  57.2147827  72.6730231  77.4776268  49.7509504
  72.7946142  76.5492914  49.9500392  72.3832273  77.4914954  48.8387820
  75.5421421  75.1631178  52.8876224  75.5643118  75.2270511  51.9328204
  75.9589480  74.3235687  53.0816730  85.9205046  84.8986438  50.9255447
  86.3636192  84.1493763  50.5274570  85.0431556  84.8896574  50.5429179
  81.0540827  91.4516779  46.4062045  81.7491732  92.0723472  46.6249360
  81.3963977  90.6012131  46.6814423  66.6708636  83.2734580  60.2658863
  65.9290372  83.4217216  60.8523493  66.3501380  83.5342846  59.4025612
  82.9532250  88.9016485  47.9349376  83.4783574  89.2403758  47.2098696
  82.8654603  87.9663500  47.7512511  74.6152299  92.8150558  60.0639253
  74.9239425  92.5699705  60.9361952  75.4127781  93.0197197  59.5758123
  74.6372911  94.9688468  52.2944629  74.1977901  94.4764847  52.9877486
  75.3881028  94.4261436  52.0536705  67.1165250  91.1600009  52.2969257
  67.9423270  90.8603781  51.9167901  66.7659302  90.3907631  52.7459046
  72.0846783  90.5126477  54.3666931  71.4626792  89.8497182  54.0669159
  72.7551650  90.5387609  53.6840579  65.3173855  89.0786335  53.2558191
  64.4805763  88.6508510  53.0742192  65.2897500  89.2718779  54.1928982
  72.1571310  78.9908265  63.9599437  72.2059466  79.8670388  63.5777207
  72.6993825  78.4485658  63.3871080  82.6426156  89.5349388  63.2400574
  81.8521700  89.5173527  62.7005074  82.4059511  90.0737682  63.9949611
  82.7624031  86.3841855  60.5533303  82.8122036  86.2191862  61.4948825
  82.6537955  85.5169114  60.1631183  71.6460290  89.0630401  47.8425392
  71.7948410  89.7465865  47.1892064  72.4526733  89.0435491  48.3574847
  80.0527794  82.3672783  61.8692609  80.9537656  82.2279248  61.5776607
  80.1275768  82.5327238  62.8090787  74.3870599  79.7439638  60.7145796
  73.5173908  80.0373204  60.4428384  74.6230079  80.3280083  61.4353059
  84.2642228  88.8038796  60.7975324  83.9727036  89.1668777  61.6338785
  83.6514359  88.0905805  60.6188656  85.4637910  86.3691676  53.3177894
  86.2984802  86.8081480  53.4815455  85.5997039  85.8930329  52.4986140
  82.5129416  83.9271411  59.2655382  82.9883538  84.1199057  58.4574234
  81.5894982  83.9830597  59.0198766  69.4012923  85.0895578  48.8486461
  69.1558965  84.1857908  49.0466671  69.5708837  85.0912729  47.9065939
  77.0909633  75.9619255  58.2311216  77.6091577  76.6980281  57.9057705
  76.7364765  76.2683248  59.0657975  68.6708570  80.8223936  46.3472622
  67.9777815  80.8968291  45.6912658  68.4260322  80.0584279  46.8694139
  77.3422227  72.3819537  53.7512113  77.6223981  71.7142726  54.3772539
  78.1272834  72.5748633  53.2386777  75.1455695  91.5578531  45.3137139
  74.5729662  92.1768718  44.8607611  75.7188489  92.1077893  45.8477061
  81.2131085  80.8037171  57.4983688  82.1648508  80.9035269  57.5195912
  81.0434536  80.0115440  58.0081772  79.2345465  77.8892754  57.6843089
  78.6395397  78.1697767  56.9889577  78.9495161  78.3786655  58.4559830
  78.3652955  91.8415681  46.4445721  79.2983628  91.7761243  46.6478597
  78.2776168  92.6771948  45.9860254  80.9940972  91.1581551  43.4049669
  80.9154603  90.8241415  44.2985427  81.8150639  91.6503319  43.4041141
  83.6919163  84.0243291  56.6125987  83.6595483  83.0859292  56.7985671
  84.3019787  84.1027327  55.8791812  75.5302494  82.8939344  42.6553192
  76.4761599  82.7645552  42.7241610  75.1516739  82.1554006  43.1322620
  83.8413652  80.8154334  56.6584271  83.3252700  80.0312791  56.4714200
  84.7253600  80.4873051  56.8230790  81.5024378  74.5595350  52.6180083
  81.3049200  74.2510438  53.5023415  82.1124084  75.2856989  52.7478013
  89.5095713  85.0859298  55.7532024  90.2399101  84.8244586  56.3139728
  88.9002658  84.3488020  55.7934092  87.5911010  83.2267160  56.3506475
  86.8644174  83.0923125  55.7422967  87.1758297  83.5343989  57.1563194
  75.4141186  86.9457090  64.1153849  76.3344196  87.1235689  64.3093895
  75.3790769  86.0013135  63.9633548  73.7145411  80.8189320  42.5908077
  72.8076866  80.5222433  42.6670790  73.9921392  80.5219138  41.7242363
  64.6323351  82.1395684  53.0407123  64.3126136  81.2860992  52.7481497
  64.0856780  82.3544262  53.7965090  68.4103259  84.8558125  56.7576630
  68.6289269  85.7875232  56.7764663  68.8229033  84.4966099  57.5431433
  75.3307477  75.3626210  48.7452318  74.5208205  75.0173295  49.1207564
  76.0191894  75.0533754  49.3339930  77.2598025  74.4404257  50.3676615
  77.8129064  74.8599710  51.0266638  77.4968111  73.5140005  50.4099571
  73.2831124  80.4291330  66.1479379  73.1827851  81.3785687  66.0791470
  73.0652666  80.1009569  65.2755449  72.4844196  77.6776255  42.7320056
  73.3463360  78.0031154  42.9915873  72.6694540  76.8907751  42.2193122
  64.5011611  85.7598595  55.0100245  63.8075083  85.3452548  54.4970199
  65.2484602  85.8019132  54.4133664  80.6376832  76.5504782  49.8755279
  80.0575501  77.2089586  49.4933331  80.3712765  75.7282126  49.4642696
  79.0880399  75.9509840  52.0776599  79.5880177  76.0626374  51.2690918
  79.7316006  75.6470892  52.7177408  73.1462394  83.8588469  64.9644440
  72.6629476  84.6588829  65.1708329  73.2323333  83.8696414  64.0111884
  66.4148354  85.6916849  52.8866260  66.3919042  85.7904536  51.9348143
  66.7248990  86.5382000  53.2083426  69.0735732  87.7493004  57.0012874
  70.0278985  87.7176946  56.9342806  68.8748255  87.2883628  57.8163100
  69.6635114  86.3194120  59.5683672  70.4828003  86.8138199  59.5918509
  69.9371922  85.4026088  59.5401239  79.4201710  78.7104872  48.9311627
  78.5327565  78.9954523  48.7131822  79.8355699  78.5498636  48.0838904
  82.7716246  78.7351393  52.6465966  83.5476636  79.2247846  52.9190583
  82.0464380  79.1609447  53.1037836  85.2088805  79.4479012  53.7039907
  85.8033296  79.2074748  52.9933215  85.2815389  78.7286143  54.3313443
  67.4285961  93.2912623  54.0183072  67.2940429  92.5313024  53.4521070
  67.0118023  94.0153523  53.5511861  78.5644924  88.4749547  43.0259647
  79.2680774  88.6799549  43.6417303  77.8407572  89.0426309  43.2908731
  79.3942734  84.2259408  49.1461917  79.3377935  84.6827960  48.3069550
  79.9471076  83.4650093  48.9684760  83.2047540  80.0149140  49.9712037
  82.9484474  79.6145776  50.8020245  82.5800408  80.7292934  49.8462176
  87.5159878  82.7545213  52.4783328  86.9559436  82.8238403  53.2514890
  86.9103381  82.5786198  51.7582825  70.5855086  94.1881940  54.2301515
  70.4687471  95.1327373  54.1280205  69.7647533  93.8855502  54.6187314
  80.4731621  88.9132076  45.0758107  81.3077225  88.4813275  44.8935582
  80.3115964  88.7414090  46.0035002  80.1277513  85.4164189  46.4414447
  80.0726317  85.2508461  45.5002891  79.5023568  86.1240222  46.5976636
  64.9170028  80.6532254  60.2675869  65.5628892  80.1431208  60.7563094
  64.7087179  81.3900935  60.8419294  77.4423420  87.7213101  65.7668009
  78.3114580  87.8953754  65.4054644  76.9630172  88.5407518  65.6443739
  73.4373639  74.9172298  46.0199765  73.4252308  75.8614138  46.1768036
  74.3297061  74.7342444  45.7259226  71.6109601  94.8410202  57.4457443
  72.5136847  94.8733813  57.7623938  71.3846971  93.9110653  57.4603779
  73.3663203  93.5941189  54.1067522  72.4158834  93.5943050  53.9931894
  73.6695689  92.8473923  53.5903556  77.2525758  71.5115075  50.2745702
  76.4858154  70.9573562  50.4202384  77.6636463  71.5836944  51.1359853
  69.2567519  77.7999871  64.3650883  70.1198981  77.4436676  64.5754208
  68.6832930  77.4613766  65.0526287  89.1015896  99.4301727  55.1713284
  89.7394306  99.3108475  54.4676624  88.9836739 100.3782571  55.2301236
  85.9105602  99.3829155  55.1074809  85.5724114  99.2670220  54.2195344
  86.7795371  98.9820320  55.0875815  81.7692418 101.2364632  51.0971700
  81.2057283 101.1454569  50.3287987  81.6544813 100.4164536  51.5774192
  86.3925385 100.5364007  61.0661014  86.3814026 100.1416805  60.1941518
  86.5546025  99.8030080  61.6594786  79.3156850 102.7315823  53.9355920
  80.1078142 102.3906648  53.5202219  79.5553500 102.8410798  54.8558073
  81.2747604 101.9924737  46.8073299  82.0478480 101.4453724  46.6686175
  81.6273003 102.8568986  47.0187760  83.1132647 103.3201119  60.0140198
  82.8222513 104.2246750  59.8986865  83.7489631 103.3617646  60.7284268
  84.0388853 100.6977967  56.6041558  84.6352426 100.4733990  55.8898521
  84.0963825  99.9562713  57.2067006  83.6113882  98.1517403  44.4391749
  83.8639402  97.6298924  43.6775212  82.6738441  97.9883548  44.5418432
  88.6557165  97.1553181  52.2466492  89.4420254  96.7372604  51.8956909
  88.9195869  98.0599273  52.4148140  88.8267242 102.5926031  46.9455149
  88.1913075 102.6660658  47.6576053  88.4964648 103.1819630  46.2674228
  94.0565592  97.0928414  53.1499471  94.7890764  96.5227631  53.3837300
  93.3004947  96.7050015  53.5905976  83.3310171 100.0545509  46.6416124
  83.2146429  99.3790412  47.3097208  83.4412430  99.5677883  45.8248277
  85.6741711  99.5155656  50.3462813  85.3099919  98.9886277  51.0575734
  86.5308827  99.1254125  50.1729298  91.5791012  90.8049988  57.6094079
  91.2474337  91.6745399  57.3855294  90.9836625  90.4886272  58.2888110
  85.3147198  94.5445555  45.3424162  85.4821601  95.4125792  45.7094633
  85.1244368  94.7072837  44.4185451  88.0722532 103.0062534  57.0089992
  87.7723255 103.9087573  56.9005799  87.7273591 102.7394718  57.8611145
  81.5235013  99.4576331  53.0426696  80.5985510  99.3252545  53.2504388
  81.7719426 100.2370550  53.5396639  91.4719675  95.5245075  54.6887429
  90.5636553  95.4560483  54.3946190  91.4207271  96.0017019  55.5169255
  85.2936419  97.0003213  46.3270828  85.1736045  97.4460264  47.1656309
  84.5989008  97.3488531  45.7684366  78.8843824  99.1009605  53.8770485
  79.0136205  99.3544084  54.7909897  78.2041275  99.6937313  53.5575140
  85.5460541  96.9434720  62.6322326  84.7693875  97.5028640  62.6225191
  86.1851104  97.4291503  63.1537197  93.3381322  93.7261513  56.4665303
  92.6955702  94.0194046  55.8205098  92.8336250  93.6114433  57.2718500
  90.9921485  97.4724686  47.1551162  91.9039342  97.7052073  46.9798860
  90.4831133  98.0561730  46.5926241  83.8006913  99.7520173  62.1940293
  84.5421598 100.2905217  61.9175117  83.0943899 100.3786462  62.3511845
  89.2762253 101.8949314  60.7912455  89.6845609 101.4531724  60.0467087
  88.5539515 101.3201941  61.0446648  85.6293323  96.8321921  58.1646012
  86.4754518  97.2561334  58.3080661  85.5691961  96.1755545  58.8584575
  89.5991068 102.4550505  54.5464744  88.9699930 102.6196219  53.8440812
  89.2116730 102.8692114  55.3175708  88.7792769  94.4926289  59.8227186
  88.5353700  95.2468350  59.2861461  89.0552699  94.8711637  60.6574433
  90.7331231 101.0364901  58.5004451  90.9448127 101.6796661  57.8238832
  90.6860980 100.2027218  58.0326381  88.3357460  93.6482722  55.4041023
  87.4741939  93.9463976  55.6957761  88.3619895  93.8653121  54.4722056
  85.1519030 102.1924913  51.8114829  85.6157375 102.4712616  51.0219451
  84.8875828 101.2908357  51.6287920  82.0443111 101.7396394  54.7494592
  82.6144468 102.1683663  54.1112077  82.6351223 101.4578979  55.4478778
  84.0887916  98.3148065  48.6204394  84.7911959  98.7669109  49.0878320
  83.7568544  97.6731884  49.2484287  82.5368277  96.9059822  62.9955603
  81.9066938  97.5876102  63.2291000  82.4304365  96.7942903  62.0508742
  77.8313250  96.5731618  53.9221528  77.0412304  96.8289146  53.4461638
  78.3224497  97.3879956  54.0273568  79.7827995  96.9376197  50.8805004
  78.9859158  97.0494891  51.3988500  79.5553587  97.2762849  50.0145895
  85.6133663 103.4620900  58.8287519  85.6778095 103.9241307  59.6645691
  84.9044587 102.8318265  58.9569829  76.1150953  96.8262108  56.3536518
  76.3658991  97.7109118  56.6194094  76.6510501  96.6466710  55.5811610
  85.3281680 105.1289008  48.6966499  85.1927355 105.9740543  49.1251347
  85.8691493 105.3308285  47.9332433  81.8149020  91.2080587  65.3580855
  81.4215966  90.6546786  66.0328499  82.6315160  91.5191166  65.7487372
  78.7811078 102.6464446  49.2694424  79.2935598 103.4407696  49.4199989
  79.4333791 101.9490736  49.2028026  80.5905962 105.7630202  51.3517178
  80.7672591 106.6848167  51.1638161  81.3862796 105.4488621  51.7811557
  84.7316981  92.6238467  62.9501111  85.4726694  93.2245620  62.8705574
  84.9634904  91.8816104  62.3919154  79.8758319  97.8094834  61.2279341
  79.7611834  96.9080091  61.5286440  79.0202837  98.0558531  60.8764157
  81.7137278 107.2808376  57.3527520  82.2644703 107.1525439  56.5804514
  80.8748754 107.5803265  57.0022413  85.5104449 103.5459504  61.6971751
  86.0432786 102.7847792  61.4671059  84.9818530 103.2533155  62.4395906
  88.6774144  88.6519570  57.2265393  88.3338413  89.5421211  57.1504503
  89.0453107  88.4621227  56.3634978  76.7459995 100.9753100  50.0453995
  77.5835217 101.3850108  49.8287703  76.9238262 100.0352542  50.0154189
  88.6424427  98.6428181  45.7337828  88.1271050  99.4132785  45.9726215
  88.3701735  97.9693317  46.3570889  86.2271538  93.4877881  50.7923066
  85.3713134  93.0984732  50.6128705  86.6398489  93.5669842  49.9322852
  87.7570684  91.0224225  55.1914626  87.2535480  90.9854360  54.3782431
  88.0501291  91.9316967  55.2511283  84.0013570  91.1062954  54.1980808
  84.8666567  90.9105763  53.8386697  84.0691079  90.8773306  55.1250165
  88.4310730  96.5155273  47.5597609  88.1260865  96.8301422  48.4107752
  89.3841172  96.5936693  47.6024942  86.8757162 102.6745496  49.2090563
  86.3478523 101.9398256  48.8963800  86.3744664 103.4520172  48.9630531
  81.6075889  93.3365162  51.5697175  82.1819641  93.1140344  50.8370368
  82.1946872  93.4053857  52.3225776  90.6655466  99.2238889  52.3761551
  91.1787348  99.8568881  52.8783261  91.3156690  98.6240085  52.0104911
  81.9345476  95.3669623  45.5893060  81.0982789  95.7044310  45.9102335
  81.7950246  95.2318603  44.6520197  83.9098557  90.2106411  50.2972244
  83.2562969  89.8955428  49.6728859  83.8679031  89.5882152  51.0232067
  85.0209762 100.4925706  42.2125536  84.1136824 100.2614960  42.4116685
  85.5180794  99.6963326  42.3999518  87.1436297  96.6988345  54.6219892
  86.2258859  96.9203292  54.4641580  87.5596441  96.7734655  53.7631599
  87.9271345  98.0979760  49.7522572  88.6743164  98.6101158  49.4429694
  88.1962935  97.7763813  50.6126965  86.1997995 100.5938301  46.7349526
  85.2909215 100.3097334  46.8321996  86.2293079 101.0137380  45.8752833
  90.3750182  95.1336877  51.7341361  89.6372939  94.6214263  52.0651604
  90.6276956  94.6937258  50.9224638  90.4761810  87.9113129  52.3283130
  90.7820686  87.0510492  52.0409046  91.2014414  88.5030749  52.1282124
  76.7686166  98.3143815  50.7164728  76.5710565  97.7213176  49.9915795
  76.2132830  98.0096025  51.4340667  84.7482889  98.2066922  52.8359322
  84.8031499  97.2540758  52.7601798  83.9374091  98.3626361  53.3200620
  85.8974083 102.1347045  44.0737605  85.4593513 101.4182904  43.6143242
  86.6384524 102.3623160  43.5122696  82.6875249  96.8243982  50.5949700
  81.8743115  97.1238152  51.0014893  83.1834243  96.4299670  51.3124183
  88.2849461  97.2885806  59.4264594  88.6398849  97.5157279  60.2859060
  88.9321592  97.6204183  58.8041850  82.1789324  94.3962337  56.2110935
  82.8188703  94.2551096  55.5133899  81.3466855  94.1096850  55.8349537
  82.9549628 103.6964767  52.3245928  83.7490226 103.2015088  52.1228503
  82.2441320 103.1682631  51.9613633  79.2632391  97.8407849  48.4005680
  78.3329979  97.7792305  48.6175643  79.3589863  97.3183802  47.6042322
  79.1817940  94.3662662  50.9883922  79.4424758  95.2807995  50.8793083
  80.0035113  93.8987105  51.1380535  80.6542866  95.7800419  58.1582747
  81.3265919  95.5717781  57.5095396  79.8272652  95.5822505  57.7187979
  86.5568438  92.4062360  60.1748408  85.9096353  93.1052310  60.0812884
  87.3269453  92.8398504  60.5424656  86.7332572 100.2443125  58.2345227
  87.6624632 100.3954285  58.0614195  86.3123602 100.3327146  57.3793874
  85.5320904 104.2693789  56.0043765  85.3931990 103.9012574  56.8769703
  84.7435500 104.7841429  55.8327723  87.0826119 103.6475392  53.3932603
  86.7475952 103.6076162  54.2890253  86.5830065 102.9820108  52.9203013
  81.0570363  99.0543022  58.9185184  80.9190161  98.3223261  59.5196723
  81.9675286  98.9651922  58.6369372  90.0185311 100.9931426  43.6669662
  89.4014481 100.2678255  43.5702715  89.5501799 101.7540787  43.3236737
  83.6852664  98.7662981  58.4068863  84.3952282  98.1256174  58.3655482
  83.6421972  99.0175876  59.3295044  82.3981598  95.7528199  60.2264503
  81.8618955  95.3018938  60.8786099  81.8098306  95.8874108  59.4834967
  81.8083857  95.2116851  42.7890967  80.9313323  95.0905652  42.4253213
  82.2841610  94.4202929  42.5369855  73.3285997  99.9994011  52.8832474
  74.0157037  99.6855741  52.2953489  73.1734125 100.9035375  52.6099725
  78.1320719  94.8884207  57.3117497  78.0478908  94.2809877  56.5767907
  77.3103425  95.3793225  57.3126994  88.3044433  93.3737771  52.6787693
  88.8013132  92.6207733  52.3588763  87.5331414  93.4102087  52.1130902
  89.3874213 102.1309458  50.2526116  88.4530492 102.2510920  50.0830820
  89.5650882 101.2281925  49.9886126  84.8879401  95.5155154  52.4059377
  84.5177189  94.9626194  53.0940283  85.3838494  94.9113287  51.8534377
  92.7746765  97.9726777  50.7876150  93.2407217  98.8054769  50.7136453
  93.2254265  97.5071759  51.4921409  82.7168600 105.9752649  59.5014395
  83.4178060 106.6089132  59.6543789  82.2463715 106.3167380  58.7410034
  90.7463428  90.3407364  54.8267051  89.8326507  90.5711591  54.9949258
  91.1756529  90.4245808  55.6781084  90.5169886  98.5297256  57.3266945
  89.8641336  98.7773164  56.6719398  90.8950266  97.7161394  56.9929423
  86.5657459  99.2717067  63.8132982  85.8898096  99.1711196  64.4835358
  87.3885093  99.1156281  64.2768980  78.3136318 105.5089004  56.4345498
  78.8989755 104.7632692  56.5673402  78.1161157 105.8192960  57.3182162
  81.1674973 108.5440251  51.4507940  80.4985349 109.0286379  50.9671980
  81.0287843 108.7909471  52.3651319  72.9053973  98.0794604  55.1549941
  72.9438072  97.5458195  55.9487059  72.3994266  97.5529809  54.5360918
  80.2844735  92.9259144  58.6512483  80.3486062  93.7873975  58.2389881
  80.2211855  92.3133146  57.9184842  79.7597008  94.9982277  62.2985517
  80.3869046  94.6159354  62.9123042  78.9024927  94.7796479  62.6641210
  76.5362550  96.8058706  48.2303872  76.8315992  95.8969384  48.1770926
  75.6350586  96.7846445  47.9084875  80.0656797  94.8814703  54.2131421
  79.3443383  95.4950670  54.0738894  80.8550053  95.4172467  54.1348067
  82.8683111  92.2169129  60.4872073  83.3917513  92.4631426  61.2498382
  82.6495444  93.0489164  60.0675210  78.2650392  94.4872804  48.3543197
  77.9363098  93.6070183  48.1718303  78.6189763  94.4320472  49.2419587
  81.3792215  94.7745773  48.7218675  81.7188288  95.3031695  47.9997283
  81.8264336  95.1126180  49.4977242  84.0735656  93.1582824  58.1721743
  83.7332476  92.3590637  58.5742423  83.3674662  93.4584535  57.5998576
  84.7252128  90.2432137  56.6249066  85.5478197  89.7692615  56.5027957
  84.9690191  91.0222620  57.1247752  83.3660362  93.2720395  46.9211968
  84.0868725  93.6501648  46.4175685  82.7425666  93.9909272  47.0246946
  87.5091485  93.9765544  47.8570300  87.7255100  94.8590182  47.5559128
  87.0285552  93.5851757  47.1275942  82.2490707  96.9351257  54.4341045
  82.1035287  97.2491560  55.3265326  81.7715910  97.5536158  53.8811943
  84.1087089  93.9253805  54.4821934  84.0948658  93.0294899  54.1454232
  84.8259518  93.9324469  55.1160220  85.9613220  94.3591145  56.5275062
  85.7030998  95.2808216  56.5259392  85.4298261  93.9621580  57.2175526
  76.7236369  99.4756602  57.3728706  76.1789837 100.2516410  57.5048980
  77.6015719  99.8227406  57.2147827  83.5123985  92.8068186  49.7509504
  83.6339897  91.8784832  49.9500392  83.2226028  92.8206872  48.8387820
  86.3815176  90.4923096  52.8876224  86.4036873  90.5562429  51.9328204
  86.7983235  89.6527605  53.0816730  77.5102391  98.6026498  60.2658863
  76.7684127  98.7509133  60.8523493  77.1895135  98.8634764  59.4025612
  77.9559004 106.4891927  52.2969257  78.7817024 106.1895699  51.9167901
  77.6053056 105.7199549  52.7459046  82.9240537 105.8418395  54.3666931
  82.3020547 105.1789100  54.0669159  83.5945404 105.8679527  53.6840579
  76.1567609 104.4078253  53.2558191  75.3199518 103.9800427  53.0742192
  76.1291255 104.6010696  54.1928982  82.9965065  94.3200183  63.9599437
  83.0453220  95.1962306  63.5777207  83.5387579  93.7777576  63.3871080
  82.4854044 104.3922318  47.8425392  82.6342165 105.0757783  47.1892064
  83.2920488 104.3727408  48.3574847  90.8921548  97.6964701  61.8692609
  91.7931411  97.5571165  61.5776607  90.9669523  97.8619155  62.8090787
  85.2264353  95.0731555  60.7145796  84.3567663  95.3665121  60.4428384
  85.4623834  95.6572000  61.4353059  93.3523171  99.2563329  59.2655382
  93.8277292  99.4490975  58.4574234  92.4288736  99.3122515  59.0198766
  80.2406677 100.4187496  48.8486461  79.9952719  99.5149826  49.0466671
  80.4102592 100.4204646  47.9065939  87.9303387  91.2911172  58.2311216
  88.4485331  92.0272199  57.9057705  87.5758520  91.5975166  59.0657975
  79.5102325  96.1515853  46.3472622  78.8171570  96.2260208  45.6912658
  79.2654077  95.3876197  46.8694139  88.1815981  87.7111455  53.7512113
  88.4617735  87.0434644  54.3772539  88.9666588  87.9040550  53.2386777
  92.0524840  96.1329089  57.4983688  93.0042263  96.2327186  57.5195912
  91.8828290  95.3407357  58.0081772  90.0739219  93.2184672  57.6843089
  89.4789151  93.4989685  56.9889577  89.7888916  93.7078573  58.4559830
  94.5312918  99.3535208  56.6125987  94.4989238  98.4151209  56.7985671
  95.1413541  99.4319245  55.8791812  86.3696248  98.2231261  42.6553192
  87.3155353  98.0937470  42.7241610  85.9910493  97.4845923  43.1322620
  94.6807406  96.1446252  56.6584271  94.1646455  95.3604709  56.4714200
  95.5647355  95.8164968  56.8230790  92.3418133  89.8887267  52.6180083
  92.1442954  89.5802356  53.5023415  92.9517838  90.6148906  52.7478013
  86.2534941 102.2749008  64.1153849  87.1737950 102.4527607  64.3093895
  86.2184524 101.3305053  63.9633548  84.5539166  96.1481238  42.5908077
  83.6470621  95.8514351  42.6670790  84.8315147  95.8511056  41.7242363
  75.4717106  97.4687601  53.0407123  75.1519890  96.6152909  52.7481497
  74.9250534  97.6836179  53.7965090  79.2497013 100.1850042  56.7576630
  79.4683023 101.1167150  56.7764663  79.6622787  99.8258017  57.5431433
  86.1701231  90.6918128  48.7452318  85.3601960  90.3465212  49.1207564
  86.8585648  90.3825671  49.3339930  88.0991780  89.7696174  50.3676615
  88.6522818  90.1891628  51.0266638  88.3361866  88.8431922  50.4099571
  84.1224879  95.7583248  66.1479379  84.0221606  96.7077605  66.0791470
  83.9046421  95.4301487  65.2755449  83.3237950  93.0068173  42.7320056
  84.1857114  93.3323071  42.9915873  83.5088294  92.2199669  42.2193122
  75.3405366 101.0890513  55.0100245  74.6468837 100.6744466  54.4970199
  76.0878357 101.1311049  54.4133664  91.4770587  91.8796699  49.8755279
  90.8969256  92.5381504  49.4933331  91.2106519  91.0574044  49.4642696
  89.9274153  91.2801757  52.0776599  90.4273931  91.3918292  51.2690918
  90.5709761  90.9762810  52.7177408  83.9856149  99.1880387  64.9644440
  83.5023231  99.9880747  65.1708329  84.0717088  99.1988332  64.0111884
  77.2542108 101.0208766  52.8866260  77.2312797 101.1196454  51.9348143
  77.5642745 101.8673917  53.2083426  79.9129486 103.0784922  57.0012874
  80.8672740 103.0468864  56.9342806  79.7142010 102.6175545  57.8163100
  80.5028868 101.6486038  59.5683672  81.3221757 102.1430116  59.5918509
  80.7765676 100.7318006  59.5401239  90.2595465  94.0396790  48.9311627
  89.3721320  94.3246440  48.7131822  90.6749454  93.8790553  48.0838904
  93.6110001  94.0643311  52.6465966  94.3870391  94.5539763  52.9190583
  92.8858135  94.4901365  53.1037836  96.0482559  94.7770930  53.7039907
  96.6427050  94.5366666  52.9933215  96.1209143  94.0578061  54.3313443
  78.2679715 108.6204541  54.0183072  78.1334183 107.8604942  53.4521070
  77.8511777 109.3445441  53.5511861  90.2336488  99.5551326  49.1461917
  90.1771690 100.0119877  48.3069550  90.7864831  98.7942010  48.9684760
  94.0441294  95.3441058  49.9712037  93.7878229  94.9437693  50.8020245
  93.4194162  96.0584852  49.8462176  90.9671268 100.7456107  46.4414447
  90.9120071 100.5800378  45.5002891  90.3417323 101.4532140  46.5976636
  75.7563783  95.9824171  60.2675869  76.4022646  95.4723125  60.7563094
  75.5480934  96.7192853  60.8419294  88.2817175 103.0505019  65.7668009
  89.1508335 103.2245671  65.4054644  87.8023926 103.8699436  65.6443739
  84.2767393  90.2464216  46.0199765  84.2646063  91.1906056  46.1768036
  85.1690815  90.0634361  45.7259226  88.0919513  86.8406993  50.2745702
  87.3251908  86.2865479  50.4202384  88.5030218  86.9128861  51.1359853
  80.0961274  93.1291789  64.3650883  80.9592735  92.7728593  64.5754208
  79.5226684  92.7905683  65.0526287  34.9047125  -0.2095739  41.8958591
  35.5425535  -0.3288991  41.1921931  34.7867968   0.7385105  41.9546543
  31.7136831  -0.2568310  41.8320115  31.3755343  -0.3727246  40.9440650
  32.5826599  -0.6577145  41.8121121  27.5723647   1.5967166  37.8217006
  27.0088512   1.5057103  37.0533294  27.4576042   0.7767070  38.3019499
  32.1956614   0.8966541  47.7906321  32.1845255   0.5019339  46.9186825
  32.3577254   0.1632614  48.3840092  25.1188079   3.0918358  40.6601227
  25.9109371   2.7509182  40.2447526  25.3584729   3.2013333  41.5803380
  33.1523206   5.2638134  33.1331471  32.5011185   5.8492214  32.7465485
  33.9467568   5.7944329  33.1926509  27.0778833   2.3527271  33.5318606
  27.8509709   1.8056258  33.3931481  27.4304232   3.2171520  33.7433067
  28.9163875   3.6803653  46.7385505  28.6253741   4.5849284  46.6232171
  29.5520860   3.7220181  47.4529574  29.8420082   1.0580502  43.3286864
  30.4383654   0.8336524  42.6143827  29.8995054   0.3165247  43.9312312
  34.4588393  -2.4844285  38.9711799  35.2451483  -2.9024862  38.6202216
  34.7227098  -1.5798193  39.1393447  34.6298471   2.9528566  33.6700455
  33.9944304   3.0263192  34.3821360  34.2995877   3.5422164  32.9919535
  39.8596821  -2.5469052  39.8744777  40.5921992  -3.1169835  40.1082607
  39.1036176  -2.9347451  40.3151283  29.1341399   0.4148043  33.3661430
  29.0177657  -0.2607054  34.0342515  29.2443659  -0.0719583  32.5493583
  31.4772940  -0.1241810  37.0708120  31.1131147  -0.6511189  37.7821041
  32.3340056  -0.5143341  36.8974605  33.8753760   3.3665069  43.7335299
  33.5754484   4.2690107  43.6251106  33.5304820   3.0997252  44.5856451
  27.3266242  -0.1821135  39.7672003  26.4016738  -0.3144921  39.9749695
  27.5750655   0.5973085  40.2641945  37.2750904  -4.1152391  41.4132736
  36.3667782  -4.1836983  41.1191497  37.2238500  -3.6380446  42.2414561
  31.0967648  -2.6394253  33.0516135  30.9767273  -2.1937202  33.8901615
  30.4020236  -2.2908935  32.4929673  24.6875053  -0.5387861  40.6015792
  24.8167434  -0.2853382  41.5155204  24.0072504   0.0539847  40.2820447
  28.8574540  10.1309389  36.7006266  28.7798570  11.0817214  36.7794747
  28.2536184   9.7855261  37.3581193  31.3491770  -2.6962746  49.3567633
  30.5725104  -2.1368826  49.3470498  31.9882333  -2.2105963  49.8782503
  39.1412551  -5.9135953  43.1910610  38.4986931  -5.6203420  42.5450404
  38.6367479  -6.0283033  43.9963806  36.7952714  -2.1672780  33.8796469
  37.7070570  -1.9345393  33.7044167  36.2862361  -1.5835735  33.3171548
  29.6038142   0.1122708  48.9185600  30.3452827   0.6507752  48.6420424
  28.8975128   0.7388996  49.0757152  35.0793482   2.2551848  47.5157762
  35.4876838   1.8134259  46.7712394  34.3570743   1.6804476  47.7691955
  31.4324552  -2.8075545  44.8891319  32.2785747  -2.3836132  45.0325968
  31.3723190  -3.4641921  45.5829882  35.4022297   2.8153039  41.2710050
  34.7731159   2.9798753  40.5686118  35.0147959   3.2294648  42.0421015
  39.2811528   3.7507477  38.6254414  38.5962567   4.1306378  38.0751448
  39.3655378   4.3602803  39.3586362  34.5823997  -5.1471177  46.5472492
  34.3384929  -4.3929116  46.0106768  34.8583928  -4.7685829  47.3819739
  36.5362460   1.3967436  45.2249758  36.7479355   2.0399196  44.5484139
  36.4892208   0.5629752  44.7571688  34.1388689  -5.9914744  42.1286330
  33.2773168  -5.6933490  42.4203067  34.1651124  -5.7744345  41.1967363
  30.9550258   2.5527447  38.5360136  31.4188604   2.8315150  37.7464758
  30.6907057   1.6510891  38.3533226  27.8474340   2.0998928  41.4739899
  28.4175697   2.5286197  40.8357383  28.4382451   1.8181513  42.1724085
  29.8919145  -1.3249401  35.3449701  30.5943188  -0.8728357  35.8123627
  29.5599773  -1.9665582  35.9729594  28.3399506  -2.7337644  49.7200910
  27.7098167  -2.0521363  49.9536307  28.2335594  -2.8454563  48.7754048
  37.6508288   4.2739391  43.3972115  38.4725732   3.8719578  43.1154797
  37.6470691   4.1707625  44.3488231  31.4164891   3.8223434  45.5532826
  31.4809324   4.2843842  46.3890997  30.7075815   3.1920799  45.6815135
  45.7414281   0.6178140  39.7457087  44.9877989   0.0485538  39.5901091
  45.8761822   0.5840804  40.6927721  31.1312909   5.4891542  35.4211806
  30.9958584   6.3343078  35.8496654  31.6722722   5.6910819  34.6577740
  24.5842307   3.0066980  35.9939731  25.0966827   3.8010230  36.1445296
  25.2365019   2.3093270  35.9273332  26.3937191   6.1232736  38.0762484
  26.5703820   7.0450701  37.8883468  27.1894025   5.8091155  38.5056864
  32.7581386   6.1115108  49.5512148  32.3145240   5.3251487  49.2333053
  33.4198599   6.2994259  48.8856039  27.5168507   7.6410910  44.0772827
  28.0675932   7.5127973  43.3049820  26.6779983   7.9405799  43.7267719
  34.8562624   6.3917908  47.5793549  34.8381099   7.2126789  47.0873818
  35.7782544   6.2671984  47.8043690  31.3135678   3.9062038  48.4217058
  31.8464015   3.1450326  48.1916366  30.7849759   3.6135690  49.1641212
  22.5491223   1.3355634  36.7699302  23.3866445   1.7452643  36.5533009
  22.7269491   0.3955076  36.7399495  34.4455655  -0.9969285  32.4583135
  33.9302279  -0.2264681  32.6971522  34.1732964  -1.6704149  33.0816196
  39.4189930   1.7563069  34.3936308  38.6419372   1.4174229  33.9491470
  40.0981411   1.7615693  33.7191273  34.2341959  -3.1242193  34.2842916
  33.9292094  -2.8096044  35.1353059  35.1872401  -3.0460773  34.3270249
  32.6788390   3.0348030  35.9335870  32.1509752   2.3000790  35.6209107
  32.1775893   3.8122707  35.6875838  37.6581236   1.2297051  41.0502916
  37.0004911   1.9196312  41.1383045  38.4621636   1.6193483  41.3936902
  36.4686695  -0.4158577  39.1006858  36.9818577   0.2171415  39.6028567
  37.1187919  -1.0157381  38.7350218  30.8240991   0.8528241  28.9370843
  29.9168052   0.6217494  29.1361992  31.3212023   0.0565860  29.1244824
  33.7309070   9.5625748  31.8567529  33.0570768   9.8657444  32.4652487
  34.1174891  10.3654828  31.5072986  32.9467526  -2.9409121  41.3465198
  32.0290088  -2.7194174  41.1886886  33.3627670  -2.8662811  40.4876906
  33.7302574  -1.5417705  36.4767879  34.4774393  -1.0296308  36.1675001
  33.9994163  -1.8633653  37.3372272  32.0029224   0.9540835  33.4594833
  31.0940443   0.6699868  33.5567303  32.0324308   1.3739914  32.5998140
  37.2348491   4.5647425  37.2286000  36.7810819   3.7238335  37.2851191
  36.6042458   5.2008823  37.5660781  36.1781411  -4.5060589  38.4586668
  35.4404168  -5.0183203  38.7896910  36.4308185  -4.9460207  37.6469945
  35.6781431   6.4023922  38.1635819  35.9704405   6.9628979  37.4448184
  36.1880051   6.6952483  38.9188978  30.5514118  -1.4330544  39.5604628
  30.6062728  -2.3856708  39.4847105  29.7405320  -1.2771105  40.0445927
  31.7005312   2.4949579  30.7982911  31.2624742   1.7785438  30.3388549
  32.4415753   2.7225694  30.2368003  28.4906478  -2.8153484  37.3195007
  27.6774344  -2.5159314  37.7260199  28.9865472  -3.2097796  38.0369489
  30.6415056   7.1804273  39.2529272  30.5991235   7.4065119  38.3237804
  31.5577755   6.9467647  39.4015073  34.0880690  -2.3511660  46.1509901
  34.4430077  -2.1240187  47.0104367  34.7352821  -2.0193283  45.5287156
  39.8178427   0.7706776  36.8559230  39.6796325   0.9608372  35.9280419
  39.4614645   1.5326159  37.3127281  39.8447806   2.8383303  41.8670501
  40.2784313   2.7458592  42.7153555  40.5579387   2.8140804  41.2290517
  28.7580857   4.0567302  39.0491234  29.5521455   3.5617622  38.8473809
  28.0472549   3.5285165  38.6858940  33.5775701   6.4385397  43.4003602
  33.6312723   7.0076334  44.1681318  32.7090483   6.6087282  43.0357639
  40.7063356   2.8807004  44.4003387  40.8999246   3.7852814  44.6462662
  40.6063974   2.4214423  45.2341972  35.7678464   3.0313746  49.9744267
  35.6163971   2.8024298  49.0574351  35.7583144   3.9884348  49.9875612
  32.5363801   0.6045659  44.9590534  33.4655861   0.7556819  44.7859501
  32.1154831   0.6929680  44.1039180  31.3352133   4.6296324  42.7289072
  31.1963218   4.2615108  43.6015010  30.5466729   5.1443963  42.5573029
  31.9300285   9.7305420  34.0714608  32.1052040   9.2593463  34.8860231
  31.2433073  10.3571186  34.2995869  32.8857348   4.0077926  40.1177909
  32.5507180   3.9678696  41.0135559  32.3861294   3.3422642  39.6448320
  26.8601592  -0.5854444  45.6430490  26.7221390  -1.3174205  46.2442030
  27.7706515  -0.6745544  45.3614678  35.8216539   1.3533961  30.3914969
  35.2045710   0.6280789  30.2948022  35.3533028   2.1143321  30.0482043
  29.4883892  -0.8734484  45.1314170  30.1983511  -1.5141292  45.0900789
  29.4453201  -0.6221589  46.0540351  37.4770671   6.0632869  48.0520749
  37.4183217   5.3792089  47.3851332  37.8790190   6.8051859  47.6001375
  26.4961370  12.8794783  40.8454468  26.7357968  13.5113307  41.5233487
  25.6530566  12.5282823  41.1319827  37.4788078   4.0272453  46.2834729
  36.5914857   3.6898375  46.4061128  38.0486629   3.2955484  46.5203494
  31.0089232   8.6873905  43.2495972  30.9359403   9.4928877  43.7615277
  30.5666625   8.8865871  42.4243994  30.7979011   7.9245675  36.7598794
  30.0146533   8.4667356  36.8537018  31.4971757   8.4419655  37.1593035
  34.1075662  -6.2659695  39.4032999  34.6044361  -7.0189733  39.0834069
  33.3362643  -6.2295379  38.8376208  41.9605419  -0.5619330  41.0451291
  41.9495295   0.3205386  40.6745224  41.0922798  -0.9147779  40.8505828
  33.4687915   8.5860739  45.4054131  34.1815888   9.2208204  45.3330032
  32.9777944   8.6824605  44.5894133  35.1905442   2.4911992  36.9771423
  34.2561721   2.6113455  36.8076127  35.3682111   1.5884459  36.7131432
  30.6910630  -4.1242312  39.1304684  30.3208418  -4.6771272  39.8185589
  31.1869723  -4.7284179  38.5779684  38.5777994  -1.6670689  37.5121457
  39.0438446  -0.8342697  37.4381759  39.0285494  -2.1325707  38.2166715
  28.5199829   6.3355183  46.2259702  29.2209288   6.9691666  46.3789096
  28.0494944   6.6769914  45.4655341  36.6454225   4.6773133  34.5107609
  36.9214069   4.5629727  35.4201483  35.7758723   4.2790617  34.4719782
  36.3201115  -1.1100210  44.0512252  35.6672565  -0.8624302  43.3964705
  36.6981495  -1.9236072  43.7174729  33.2808289   8.9259483  38.1540422
  33.4630683   8.1081139  38.6168175  34.1041275   9.1427176  37.7165312
  33.6150454   7.8527669  35.4155471  34.1438221   7.3420123  34.8025633
  33.8778674   7.5370199  36.2801004  32.3688688  -0.3680399  50.5378289
  31.6929325  -0.4686269  51.2080664  33.1916322  -0.5241185  51.0014286
  24.1167547   5.8691538  43.1590804  24.7020984   5.1235226  43.2918709
  23.9192385   6.1795495  44.0427468  26.9706202   8.9042785  38.1753247
  26.3016577   9.3888913  37.6917287  26.8319072   9.1512006  39.0896625
  31.1111471  10.9386529  44.7735905  31.6629779  11.1018150  45.5384990
  31.4517664  11.5290967  44.1015930  35.9622345   5.7647786  50.6284560
  36.5062249   6.3777745  50.1339514  35.3809190   6.3227365  51.1451573
  34.2479858   8.8868504  41.7599587  34.1230997   8.0858244  41.2510533
  34.9058949   9.3814698  41.2713557  36.3114766   6.6877524  43.3879137
  35.3645102   6.5682876  43.3157464  36.6597539   5.8000022  43.4705399
  33.3161200   6.4830241  39.5883490  33.1686162   5.5546948  39.7691060
  34.1414693   6.5050331  39.1040565  36.9195322   7.3058799  40.6748362
  37.8441869   7.1001661  40.5372813  36.7510625   7.0575201  41.5837704
  33.3122714  -5.6631922  34.5815607  33.5286328  -4.7807284  34.2804435
  32.8316781  -6.0545708  33.8521249  28.0521935  -2.7046209  41.1586351
  27.9066516  -2.3905905  42.0510633  27.5747139  -2.0861308  40.6057250
  31.7644449  -5.2806320  43.2520368  31.5062227  -4.3589250  43.2504699
  31.2329489  -5.6775886  43.9420833  36.7090638   7.8244467  36.0310454
  36.8827515   7.2590889  35.2784306  37.2019529   8.6245362  35.8489944
  42.5630029   0.5880890  37.6500754  43.0061175  -0.1611785  37.2519877
  41.6856539   0.5791026  37.2674486  37.6965810   7.1411231  33.1307352
  38.3916715   7.7617924  33.3494667  38.0388960   6.2906582  33.4059730
  39.5957233   4.5910937  34.6594683  40.1208557   4.9298209  33.9344003
  39.5079586   3.6557952  34.4757817  31.2577282   8.5045010  46.7884559
  31.5664408   8.2594157  47.6607259  32.0552764   8.7091649  46.3003430
  31.2797894  10.6582920  39.0189936  30.8402884  10.1659299  39.7122793
  32.0306011  10.1155888  38.7782011  23.7590233   6.8494461  39.0214564
  24.5848253   6.5498233  38.6413208  23.4084285   6.0802083  39.4704353
  28.7271766   6.2020929  41.0912238  28.1051776   5.5391634  40.7914466
  29.3976633   6.2282061  40.4085885  21.9598838   4.7680787  39.9803498
  21.1230746   4.3402962  39.7987499  21.9322484   4.9613231  40.9174289
  39.2851139   5.2243840  49.9645881  38.4946683   5.2067979  49.4250380
  39.0484494   5.7632134  50.7194917  39.4049014   2.0736307  47.2778609
  39.4547019   1.9086314  48.2194132  39.2962938   1.2063566  46.8876490
  28.2885273   4.7524852  34.5670698  28.4373394   5.4360317  33.9137371
  29.0951717   4.7329942  35.0820154  36.6952777  -1.9432765  48.5937916
  37.5962640  -2.0826300  48.3021914  36.7700751  -1.7778310  49.5336093
  31.0295582  -4.5665910  47.4391102  30.1598892  -4.2732344  47.1673691
  31.2655063  -3.9825465  48.1598366  40.9067211   4.4933248  47.5220631
  40.6152020   4.8563229  48.3584092  40.2939343   3.7800257  47.3433963
  42.1062894   2.0586128  40.0423201  42.9409785   2.4975932  40.2060761
  42.2422022   1.5824781  39.2231447  39.1554400  -0.3834137  45.9900689
  39.6308521  -0.1906491  45.1819540  38.2319965  -0.3274951  45.7444073
  26.0437906   0.7790030  35.5731767  25.7983948  -0.1247640  35.7711977
  26.2133821   0.7807181  34.6311245  31.7880679   7.2472983  32.0382446
  31.2154646   7.8663170  31.5852918  32.3613472   7.7972345  32.5722368
  37.8556069  -3.5068377  44.2228994  38.8073491  -3.4070279  44.2441219
  37.6859519  -4.2990108  44.7327079  35.8770448  -6.4212794  44.4088395
  35.2820380  -6.1407781  43.7134884  35.5920145  -5.9318893  45.1805136
  35.0077938   7.5310133  33.1691028  35.9408612   7.4655695  33.3723903
  34.9201151   8.3666400  32.7105561  37.6365955   6.8476003  30.1294976
  37.5579587   6.5135867  31.0230733  38.4575622   7.3397771  30.1286448
  40.3344146  -0.2862257  43.3371294  40.3020466  -1.2246257  43.5230978
  40.9444770  -0.2078221  42.6037119  32.1727477  -1.4166204  29.3798498
  33.1186582  -1.5459996  29.4486916  31.7941722  -2.1551542  29.8567926
  40.4838635  -3.4951214  43.3829577  39.9677683  -4.2792757  43.1959506
  41.3678583  -3.8232497  43.5476097  46.1520696   0.7753750  42.4777331
  46.8824085   0.5139038  43.0385034  45.5427642   0.0382471  42.5179399
  44.2335993  -1.0838388  43.0751782  43.5069157  -1.2182423  42.4668274
  43.8183280  -0.7761559  43.8808500  32.0566170   2.6351542  50.8399155
  32.9769179   2.8130141  51.0339202  32.0215753   1.6907587  50.6878854
  25.0528242   0.5452576  43.4821936  25.2714252   1.4769684  43.5009970
  25.4654016   0.1860551  44.2676740  29.9256108  -3.8814218  52.8724685
  29.8252834  -2.9319861  52.8036776  29.7077650  -4.2095979  52.0000755
  37.2801815  -7.7600766  36.6000586  36.7000484  -7.1015962  36.2178638
  37.0137748  -8.5823422  36.1888003  35.7305382  -8.3595709  38.8021906
  36.2305160  -8.2479174  37.9936225  36.3740990  -8.6634656  39.4422714
  29.7887378  -0.4517079  51.6889747  29.3054459   0.3483281  51.8953636
  29.8748317  -0.4409134  50.7357191  23.0573337   1.3811301  39.6111566
  23.0344025   1.4798988  38.6593449  23.3673974   2.2276452  39.9328732
  25.7160715   3.4387456  43.7258181  26.6703969   3.4071398  43.6588112
  25.5173239   2.9778079  44.5408407  26.3060097   2.0088572  46.2928978
  27.1252986   2.5032650  46.3163816  26.5796905   1.0920540  46.2646546
  36.0626693  -5.6000676  35.6556934  35.1752548  -5.3151025  35.4377129
  36.4780683  -5.7606913  34.8084211  39.4141230  -5.5754155  39.3711273
  40.1901620  -5.0857702  39.6435890  38.6889364  -5.1496101  39.8283143
  41.8513788  -4.8626536  40.4285214  42.4458279  -5.1030800  39.7178522
  41.9240372  -5.5819405  41.0558750  24.0710944   8.9807075  40.7428379
  23.9365412   8.2207476  40.1766377  23.6543006   9.7047975  40.2757167
  35.2069907   4.1643999  29.7504954  35.9105757   4.3694001  30.3662609
  34.4832556   4.7320761  30.0154037  36.0367717  -0.0846140  35.8707224
  35.9802919   0.3722411  35.0314856  36.5896060  -0.8455455  35.6930067
  39.8472523  -4.2956408  36.6957344  39.5909457  -4.6959772  37.5265551
  39.2225391  -3.5812614  36.5707483  44.1584861  -1.5560335  39.2028635
  43.5984419  -1.4867146  39.9760197  43.5528364  -1.7319350  38.4828131
  27.2280070   9.8776392  40.9546821  27.1112454  10.8221825  40.8525511
  26.4072516   9.5749954  41.3432620  37.1156604   4.6026528  31.8003414
  37.9502208   4.1707726  31.6180889  36.9540947   4.4308542  32.7280308
  36.7702497   1.1058641  33.1659753  36.7151300   0.9402913  32.2248197
  36.1448552   1.8134674  33.3221943  34.0848404   3.4107553  52.4913316
  34.9539563   3.5848205  52.1299951  33.6055155   4.2301970  52.3689045
  28.2534584  10.5304654  44.1702750  29.1561831  10.5628264  44.4869245
  28.0271954   9.6005105  44.1849085  30.0088186   9.2835641  40.8312828
  29.0583817   9.2837502  40.7177201  30.3120672   8.5368375  40.3148863
  45.7440879  15.1196179  41.8958591  46.3819289  15.0002926  41.1921931
  45.6261722  16.0677023  41.9546543  42.5530586  15.0723607  41.8320115
  42.2149097  14.9564672  40.9440650  43.4220354  14.6714772  41.8121121
  38.4117401  16.9259084  37.8217006  37.8482267  16.8349021  37.0533294
  38.2969796  16.1058988  38.3019499  43.0350369  16.2258459  47.7906321
  43.0239009  15.8311257  46.9186825  43.1971008  15.4924532  48.3840092
  35.9581833  18.4210275  40.6601227  36.7503125  18.0801100  40.2447526
  36.1978483  18.5305250  41.5803380  43.9916960  20.5930051  33.1331471
  43.3404940  21.1784132  32.7465485  44.7861323  21.1236246  33.1926509
  37.9172587  17.6819188  33.5318606  38.6903463  17.1348176  33.3931481
  38.2697986  18.5463438  33.7433067  39.7557630  19.0095571  46.7385505
  39.4647496  19.9141202  46.6232171  40.3914614  19.0512098  47.4529574
  40.6813837  16.3872419  43.3286864  41.2777409  16.1628442  42.6143827
  40.7388808  15.6457165  43.9312312  40.2538865  13.8411855  31.1637055
  40.5064386  13.3193376  30.4020518  39.3163424  13.6778000  31.2663739
  45.2982148  12.8447633  38.9711799  46.0845237  12.4267056  38.6202216
  45.5620852  13.7493725  39.1393447  45.4692225  18.2820483  33.6700455
  44.8338058  18.3555110  34.3821360  45.1389632  18.8714082  32.9919535
  50.6990575  12.7822866  39.8744777  51.4315747  12.2122083  40.1082607
  49.9429931  12.3944467  40.3151283  39.9735154  15.7439961  33.3661430
  39.8571412  15.0684864  34.0342515  40.0837414  15.2572334  32.5493583
  42.3166695  15.2050108  37.0708120  41.9524902  14.6780729  37.7821041
  43.1733811  14.8148577  36.8974605  48.2215995   6.4944440  44.3339386
  47.8899320   7.3639851  44.1100601  47.6261609   6.1780724  45.0133416
  41.9572182  10.2340007  32.0669468  42.1246584  11.1020244  32.4339939
  41.7669351  10.3967289  31.1430757  44.7147515  18.6956986  43.7335299
  44.4148238  19.5982025  43.6251106  44.3698574  18.4289169  44.5856451
  38.1659996  15.1470783  39.7672003  37.2410493  15.0146997  39.9749695
  38.4144410  15.9265002  40.2641945  48.1144659  11.2139526  41.4132736
  47.2061536  11.1454935  41.1191497  48.0632254  11.6911471  42.2414561
  41.9361403  12.6897665  33.0516135  41.8161028  13.1354716  33.8901615
  41.2413991  13.0382982  32.4929673  35.5268807  14.7904057  40.6015792
  35.6561189  15.0438536  41.5155204  34.8466259  15.3831765  40.2820447
  39.6968295  25.4601307  36.7006266  39.6192324  26.4109132  36.7794747
  39.0929938  25.1147179  37.3581193  42.1885524  12.6329172  49.3567633
  41.4118859  13.1923092  49.3470498  42.8276088  13.1185955  49.8782503
  49.9806305   9.4155965  43.1910610  49.3380685   9.7088498  42.5450404
  49.4761234   9.3008885  43.9963806  47.6346469  13.1619138  33.8796469
  48.5464325  13.3946525  33.7044167  47.1256116  13.7456182  33.3171548
  40.4431897  15.4414625  48.9185600  41.1846581  15.9799669  48.6420424
  39.7368882  16.0680914  49.0757152  45.9187236  17.5843766  47.5157762
  46.3270592  17.1426176  46.7712394  45.1964498  17.0096393  47.7691955
  42.2718306  12.5216373  44.8891319  43.1179502  12.9455786  45.0325968
  42.2116944  11.8649997  45.5829882  46.2416051  18.1444956  41.2710050
  45.6124914  18.3090671  40.5686118  45.8541713  18.5586566  42.0421015
  50.1205283  19.0799394  38.6254414  49.4356321  19.4598296  38.0751448
  50.2049132  19.6894721  39.3586362  45.4217752  10.1820741  46.5472492
  45.1778684  10.9362801  46.0106768  45.6977682  10.5606089  47.3819739
  47.3756215  16.7259353  45.2249758  47.5873110  17.3691113  44.5484139
  47.3285963  15.8921670  44.7571688  44.9782444   9.3377174  42.1286330
  44.1166923   9.6358428  42.4203067  45.0044878   9.5547573  41.1967363
  41.7944013  17.8819365  38.5360136  42.2582358  18.1607068  37.7464758
  41.5300811  16.9802809  38.3533226  38.6868094  17.4290846  41.4739899
  39.2569451  17.8578114  40.8357383  39.2776206  17.1473431  42.1724085
  40.7312899  14.0042517  35.3449701  41.4336942  14.4563561  35.8123627
  40.3993528  13.3626336  35.9729594  39.1793261  12.5954274  49.7200910
  38.5491921  13.2770554  49.9536307  39.0729348  12.4837355  48.7754048
  34.4738233  12.2626070  40.6466834  33.6837287  12.5183598  40.1706945
  34.9649480  13.0774407  40.7518875  48.4902043  19.6031309  43.3972115
  49.3119486  19.2011496  43.1154797  48.4864445  19.4999543  44.3488231
  36.4252978  12.6270649  37.6050311  35.6284142  12.7389343  38.1233807
  36.1978571  12.9657301  36.7391202  42.2558646  19.1515352  45.5532826
  42.3203078  19.6135759  46.3890997  41.5469570  18.5212717  45.6815135
  32.7575936  12.5156560  43.0781825  33.0083974  13.4003570  43.3439401
  33.2935484  12.3361162  42.3056917  56.5808036  15.9470057  39.7457087
  55.8271744  15.3777455  39.5901091  56.7155577  15.9132722  40.6927721
  41.9706664  20.8183460  35.4211806  41.8352338  21.6634995  35.8496654
  42.5116476  21.0202737  34.6577740  38.4574003   6.8975039  52.0826161
  38.0640949   6.3441238  52.7573805  39.2740144   7.2085618  52.4732679
  35.4236061  18.3358898  35.9939731  35.9360582  19.1302148  36.1445296
  36.0758774  17.6385188  35.9273332  37.2330946  21.4524654  38.0762484
  37.4097574  22.3742619  37.8883468  38.0287779  21.1383073  38.5056864
  41.3741964   8.3132918  49.6746418  42.1151678   8.9140072  49.5950880
  41.6059887   7.5710556  49.1164460  36.5183302  13.4989286  47.9524647
  36.4036817  12.5974543  48.2531746  35.6627820  13.7452982  47.6009464
  43.5975140  21.4407026  49.5512148  43.1538994  20.6543405  49.2333053
  44.2592354  21.6286177  48.8856039  38.3562261  22.9702828  44.0772827
  38.9069686  22.8419891  43.3049820  37.5173737  23.2697717  43.7267719
  45.6956378  21.7209826  47.5793549  45.6774853  22.5418707  47.0873818
  46.6176298  21.5963901  47.8043690  42.1529432  19.2353955  48.4217058
  42.6857769  18.4742244  48.1916366  41.6243513  18.9427607  49.1641212
  45.3199127   4.3414021  43.9510699  44.9763397   5.2315663  43.8749810
  45.6878090   4.1515679  43.0880284  33.3884978  16.6647552  36.7699302
  34.2260200  17.0744560  36.5533009  33.5663246  15.7246994  36.7399495
  45.2849410  14.3322633  32.4583135  44.7696033  15.1027237  32.6971522
  45.0126718  13.6587769  33.0816196  42.8696521   9.1772333  37.5168373
  42.0138117   8.7879184  37.3374012  43.2823473   9.2564294  36.6568158
  44.3995668   6.7118677  41.9159933  43.8960463   6.6748812  41.1027738
  44.6926274   7.6211419  41.9756589  40.6438553   6.7957406  40.9226114
  41.5091550   6.6000215  40.5632004  40.7116062   6.5667758  41.8495471
  50.2583684  17.0854987  34.3936308  49.4813127  16.7466147  33.9491470
  50.9375165  17.0907610  33.7191273  45.0735713  12.2049725  34.2842916
  44.7685849  12.5195874  35.1353059  46.0266155  12.2831144  34.3270249
  43.5182145  18.3639948  35.9335870  42.9903507  17.6292708  35.6209107
  43.0169648  19.1414624  35.6875838  48.4974991  16.5588968  41.0502916
  47.8398665  17.2488230  41.1383045  49.3015390  16.9485400  41.3936902
  38.2500873   9.0259614  38.2942481  38.8244624   8.8034796  37.5615674
  38.8371855   9.0948309  39.0471083  47.3080450  14.9133341  39.1006858
  47.8212332  15.5463333  39.6028567  47.9581674  14.3134537  38.7350218
  38.5770460  11.0564075  32.3138366  37.7407772  11.3938762  32.6347641
  38.4375229  10.9213055  31.3765503  40.5523540   5.9000863  37.0217551
  39.8987953   5.5849880  36.3974165  40.5104014   5.2776604  37.7477374
  41.6634745  16.1820158  28.9370843  40.7561807  15.9509412  29.1361992
  42.1605777  15.3857777  29.1244824  44.5702824  24.8917665  31.8567529
  43.8964523  25.1949362  32.4652487  44.9568646  25.6946746  31.5072986
  43.7861281  12.3882797  41.3465198  42.8683842  12.6097744  41.1886886
  44.2021424  12.4629107  40.4876906  44.5696328  13.7874212  36.4767879
  45.3168147  14.2995610  36.1675001  44.8387918  13.4658265  37.3372272
  42.8422979  16.2832753  33.4594833  41.9334198  15.9991786  33.5567303
  42.8718062  16.7031832  32.5998140  48.0742246  19.8939343  37.2286000
  47.6204573  19.0530252  37.2851191  47.4436213  20.5300741  37.5660781
  47.0175166  10.8231329  38.4586668  46.2797922  10.3108715  38.7896910
  47.2701939  10.3831710  37.6469945  46.5175185  21.7315839  38.1635819
  46.8098160  22.2920896  37.4448184  47.0273806  22.0244400  38.9188978
  47.1186793   3.6007581  39.0528437  47.4245670   2.7404944  38.7654352
  47.8439398   4.1925201  38.8527431  33.4111149  14.0038267  37.4410035
  33.2135549  13.4107628  36.7161102  32.8557813  13.6990477  38.1585974
  41.3907873  13.8961374  39.5604628  41.4456482  12.9435210  39.4847105
  40.5799075  14.0520813  40.0445927  42.5399066  17.8241497  30.7982911
  42.1018496  17.1077356  30.3388549  43.2809507  18.0517612  30.2368003
  39.3300233  12.5138433  37.3195007  38.5168098  12.8132604  37.7260199
  39.8259227  12.1194122  38.0369489  41.4808810  22.5096190  39.2529272
  41.4384989  22.7357037  38.3237804  42.3971509  22.2759565  39.4015073
  44.9274444  12.9780258  46.1509901  45.2823832  13.2051731  47.0104367
  45.5746575  13.3098635  45.5287156  50.6572181  16.0998694  36.8559230
  50.5190080  16.2900290  35.9280419  50.3008400  16.8618077  37.3127281
  38.8214307  10.0856789  42.9356242  39.4613687   9.9445548  42.2379205
  37.9891838   9.7991302  42.5594844  50.6841561  18.1675221  41.8670501
  51.1178067  18.0750510  42.7153555  51.3973141  18.1432721  41.2290517
  39.5974611  19.3859219  39.0491234  40.3915210  18.8909539  38.8473809
  38.8866304  18.8577082  38.6858940  44.4169456  21.7677315  43.4003602
  44.4706478  22.3368251  44.1681318  43.5484237  21.9379200  43.0357639
  35.9057375  13.5302301  35.1250987  34.9754963  13.4686757  35.3420949
  36.0014847  13.0078254  34.3287628  35.8242924  10.0557114  37.7129229
  36.0849741  10.9702447  37.6038389  36.6460096   9.5881556  37.8625842
  37.2967849  11.4694871  44.8828053  37.9690902  11.2612233  44.2340702
  36.4697636  11.2716957  44.4433286  51.5457110  18.2098921  44.4003387
  51.7393000  19.1144732  44.6462662  51.4457728  17.7506340  45.2341972
  43.1993421   8.0956812  46.8993714  42.5521336   8.7946762  46.8058191
  43.9694436   8.5292956  47.2669962  46.6072219  18.3605664  49.9744267
  46.4557725  18.1316216  49.0574351  46.5976898  19.3176266  49.9875612
  43.3757555  15.9337577  44.9590534  44.3049615  16.0848737  44.7859501
  42.9548585  16.0221598  44.1039180  42.1745887  19.9588241  42.7289072
  42.0356973  19.5907026  43.6015010  41.3860483  20.4735881  42.5573029
  42.7694039  25.0597338  34.0714608  42.9445795  24.5885381  34.8860231
  42.0826827  25.6863104  34.2995869  43.7251102  19.3369844  40.1177909
  43.3900935  19.2970614  41.0135559  43.2255048  18.6714560  39.6448320
  37.6995346  14.7437474  45.6430490  37.5615144  14.0117713  46.2442030
  38.6100270  14.6546374  45.3614678  46.6610294  16.6825878  30.3914969
  46.0439465  15.9572707  30.2948022  46.1926782  17.4435239  30.0482043
  40.3277647  14.4557433  45.1314170  41.0377265  13.8150626  45.0900789
  40.2846955  14.7070328  46.0540351  48.3164426  21.3924787  48.0520749
  48.2576972  20.7084007  47.3851332  48.7183944  22.1343777  47.6001375
  39.0406581  11.4422651  46.9509810  38.5043938  10.9913390  47.6031406
  38.4523289  11.5768560  46.2080274  37.3355124  28.2086701  40.8454468
  37.5751723  28.8405225  41.5233487  36.4924321  27.8574741  41.1319827
  38.4508840  10.9011303  29.5136273  37.5738306  10.7800103  29.1498520
  38.9266593  10.1097381  29.2615162  48.3181833  19.3564371  46.2834729
  47.4308612  19.0190292  46.4061128  48.8880384  18.6247402  46.5203494
  29.9710980  15.6888462  39.6077780  30.6582020  15.3750192  39.0198796
  29.8159109  16.5929827  39.3345032  34.7745702  10.5778659  44.0362804
  34.6903891   9.9704329  43.3013214  33.9528409  11.0687677  44.0372300
  41.8482986  24.0165823  43.2495972  41.7753158  24.8220795  43.7615277
  41.4060379  24.2157789  42.4243994  41.6372766  23.2537593  36.7598794
  40.8540288  23.7959273  36.8537018  42.3365511  23.7711573  37.1593035
  44.9469416   9.0632222  39.4032999  45.4438116   8.3102185  39.0834069
  44.1756398   9.0996539  38.8376208  52.7999173  14.7672588  41.0451291
  52.7889050  15.6497303  40.6745224  51.9316553  14.4144139  40.8505828
  44.3081670  23.9152657  45.4054131  45.0209642  24.5500122  45.3330032
  43.8171698  24.0116523  44.5894133  46.0299197  17.8203910  36.9771423
  45.0955475  17.9405372  36.8076127  46.2075865  16.9176376  36.7131432
  41.5304385  11.2049605  39.1304684  41.1602172  10.6520646  39.8185589
  42.0263477  10.6007739  38.5779684  49.4171748  13.6621229  37.5121457
  49.8832200  14.4949221  37.4381759  49.8679249  13.1966211  38.2166715
  39.3593583  21.6647101  46.2259702  40.0603043  22.2983583  46.3789096
  38.8888698  22.0061832  45.4655341  47.4847979  20.0065050  34.5107609
  47.7607823  19.8921645  35.4201483  46.6152478  19.6082535  34.4719782
  47.3888411   6.0301816  41.5512358  46.4751491   6.2606043  41.7194565
  47.8181512   6.1140260  42.4026390  47.1594869  14.2191708  44.0512252
  46.5066320  14.4667615  43.3964705  47.5375249  13.4055846  43.7174729
  44.1202043  24.2551401  38.1540422  44.3024438  23.4373057  38.6168175
  44.9435029  24.4719093  37.7165312  44.4544209  23.1819586  35.4155471
  44.9831975  22.6712041  34.8025633  44.7172428  22.8662116  36.2801004
  43.2082442  14.9611519  50.5378289  42.5323079  14.8605648  51.2080664
  44.0310076  14.8050733  51.0014286  34.9561301  21.1983456  43.1590804
  35.5414738  20.4527143  43.2918709  34.7586140  21.5087412  44.0427468
  37.8099957  24.2334703  38.1753247  37.1410332  24.7180831  37.6917287
  37.6712826  24.4803923  39.0896625  29.5478956  13.7689056  41.8795248
  29.5863056  13.2352646  42.6732366  29.0419249  13.2424261  41.2606225
  41.9505225  26.2678446  44.7735905  42.5023533  26.4310068  45.5384990
  42.2911419  26.8582884  44.1015930  36.9269718   8.6153596  45.3757790
  36.9911045   9.4768427  44.9635188  36.8636839   8.0027598  44.6430148
  36.4021991  10.6876729  49.0230824  37.0294030  10.3053806  49.6368348
  35.5449910  10.4690931  49.3886517  46.8016100  21.0939704  50.6284560
  47.3456004  21.7069662  50.1339514  46.2202944  21.6519282  51.1451573
  33.1787534  12.4953158  34.9549179  33.4740975  11.5863836  34.9016233
  32.2775569  12.4740897  34.6330181  45.0873612  24.2160422  41.7599587
  44.9624752  23.4150162  41.2510533  45.7452704  24.7106615  41.2713557
  36.7081781  10.5709154  40.9376728  35.9868366  11.1845122  40.7984201
  37.4975036  11.1066919  40.8593373  47.1508521  22.0169442  43.3879137
  46.2038856  21.8974793  43.3157464  47.4991294  21.1291940  43.4705399
  39.5108094   7.9063581  47.2117379  40.0342496   8.1525878  47.9743689
  39.2920428   8.7383616  46.7920517  34.9075375  10.1767256  35.0788504
  34.5788081   9.2964634  34.8963610  35.2614746  10.1214924  35.9664893
  44.1554954  21.8122158  39.5883490  44.0079917  20.8838866  39.7691060
  44.9808448  21.8342249  39.1040565  38.0217198  10.4640225  35.4463982
  38.3613271  10.9926147  34.7242590  38.4689319  10.8020631  36.2222548
  47.7589076  22.6350717  40.6748362  48.6835623  22.4293578  40.5372813
  47.5904379  22.3867118  41.5837704  40.7160639   8.8477276  44.8967050
  40.3757460   8.0485089  45.2987730  40.0099646   9.1478987  44.3243883
  41.3677111   5.9326589  43.3494373  42.1903180   5.4587067  43.2273263
  41.6115175   6.7117072  43.8493059  40.0085346   8.9614847  33.6457275
  40.7293708   9.3396100  33.1420991  39.3850650   9.6803724  33.7492252
  44.1516468   9.6659996  34.5815607  44.3680083  10.5484634  34.2804435
  43.6710536   9.2746209  33.8521249  38.8915690  12.6245709  41.1586351
  38.7460271  12.9386012  42.0510633  38.4140894  13.2430609  40.6057250
  40.7512073   9.6148257  41.2067241  40.7373642   8.7189350  40.8699539
  41.4684501   9.6218921  41.8405527  42.6038203  10.0485597  43.2520368
  42.3455981  10.9702668  43.2504699  42.0723244   9.6516032  43.9420833
  47.5484392  23.1536384  36.0310454  47.7221270  22.5882807  35.2784306
  48.0413283  23.9537279  35.8489944  33.3661352  15.1651054  44.0974013
  32.8214820  15.9410862  44.2294287  34.2440702  15.5121858  43.9393134
  40.1548969   8.4962637  36.4754811  40.2764880   7.5679284  36.6745699
  39.8651011   8.5101323  35.5633127  43.0240159   6.1817548  39.6121531
  43.0461856   6.2456881  38.6573511  43.4408218   5.3422057  39.8062037
  53.4023783  15.9172807  37.6500754  53.8454929  15.1680133  37.2519877
  52.5250294  15.9082944  37.2674486  48.5359565  22.4703149  33.1307352
  49.2310469  23.0909842  33.3494667  48.8782715  21.6198500  33.4059730
  34.1527374  14.2920950  46.9904169  33.4109110  14.4403585  47.5768800
  33.8320118  14.5529215  46.1270919  50.4350988  19.9202854  34.6594683
  50.9602312  20.2590127  33.9344003  50.3473340  18.9849870  34.4757817
  42.0971037  23.8336928  46.7884559  42.4058163  23.5886075  47.6607259
  42.8946519  24.0383567  46.3003430  42.1191649  25.9874838  39.0189936
  41.6796639  25.4951216  39.7122793  42.8699766  25.4447805  38.7782011
  34.5983988  22.1786379  39.0214564  35.4242007  21.8790150  38.6413208
  34.2478040  21.4094001  39.4704353  39.5665521  21.5312847  41.0912238
  38.9445530  20.8683552  40.7914466  40.2370388  21.5573979  40.4085885
  32.7992593  20.0972705  39.9803498  31.9624501  19.6694879  39.7987499
  32.7716238  20.2905148  40.9174289  39.6390048  10.0094635  50.6844744
  39.6878204  10.8856758  50.3022513  40.1812562   9.4672028  50.1116387
  50.1244894  20.5535758  49.9645881  49.3340438  20.5359897  49.4250380
  49.8878248  21.0924052  50.7194917  50.2442769  17.4028224  47.2778609
  50.2940774  17.2378232  48.2194132  50.1356692  16.5355483  46.8876490
  39.1279028  20.0816770  34.5670698  39.2767148  20.7652235  33.9137371
  39.9345471  20.0621860  35.0820154  47.5346531  13.3859152  48.5937916
  48.4356394  13.2465617  48.3021914  47.6094506  13.5513607  49.5336093
  41.8689337  10.7626007  47.4391102  40.9992646  11.0559573  47.1673691
  42.1048817  11.3466452  48.1598366  51.7460966  19.8225166  47.5220631
  51.4545774  20.1855146  48.3584092  51.1333097  19.1092174  47.3433963
  52.9456648  17.3878046  40.0423201  53.7803539  17.8267850  40.2060761
  53.0815777  16.9116699  39.2231447  49.9948154  14.9457781  45.9900689
  50.4702276  15.1385427  45.1819540  49.0713719  15.0016966  45.7444073
  36.8831661  16.1081948  35.5731767  36.6377703  15.2044278  35.7711977
  37.0527575  16.1099098  34.6311245  44.5728371   6.9805624  44.9556523
  45.0910314   7.7166651  44.6303011  44.2183503   7.2869617  45.7903282
  36.1527308  11.8410305  33.0717929  35.4596553  11.9154660  32.4157965
  35.9079060  11.0770649  33.5939446  44.8240965   3.4005907  40.4757419
  45.1042718   2.7329096  41.1017846  45.6091572   3.5935002  39.9632083
  42.6274433  22.5764901  32.0382446  42.0548400  23.1955088  31.5852918
  43.2007227  23.1264262  32.5722368  48.6949823  11.8223541  44.2228994
  49.6467246  11.9221638  44.2441219  48.5253273  11.0301809  44.7327079
  46.7164202   8.9079124  44.4088395  46.1214135   9.1884137  43.7134884
  46.4313899   9.3973025  45.1805136  45.8471693  22.8602051  33.1691028
  46.7802366  22.7947612  33.3723903  45.7594906  23.6958318  32.7105561
  48.4759710  22.1767921  30.1294976  48.3973341  21.8427785  31.0230733
  49.2969376  22.6689689  30.1286448  51.1737901  15.0429660  43.3371294
  51.1414221  14.1045661  43.5230978  51.7838524  15.1213697  42.6037119
  43.0121232  13.9125713  29.3798498  43.9580336  13.7831921  29.4486916
  42.6335477  13.1740375  29.8567926  51.3232389  11.8340704  43.3829577
  50.8071438  11.0499160  43.1959506  52.2072338  11.5059420  43.5476097
  48.9843116   5.5781719  39.3425390  48.7867937   5.2696808  40.2268722
  49.5942822   6.3043358  39.4723320  56.9914451  16.1045667  42.4777331
  57.7217839  15.8430955  43.0385034  56.3821396  15.3674389  42.5179399
  55.0729748  14.2453530  43.0751782  54.3462911  14.1109495  42.4668274
  54.6577035  14.5530358  43.8808500  42.8959924  17.9643459  50.8399155
  43.8162934  18.1422058  51.0339202  42.8609507  17.0199505  50.6878854
  41.1964149  11.8375690  29.3153383  40.2895604  11.5408802  29.3916097
  41.4740130  11.5405508  28.4487670  32.1142089  13.1582053  39.7652430
  31.7944874  12.3047361  39.4726804  31.5675517  13.3730631  40.5210397
  35.8921997  15.8744494  43.4821936  36.1108007  16.8061602  43.5009970
  36.3047771  15.5152469  44.2676740  42.8126215   6.3812579  35.4697625
  42.0026943   6.0359664  35.8452871  43.5010631   6.0720123  36.0585236
  44.7416763   5.4590626  37.0921921  45.2947801   5.8786080  37.7511944
  44.9786849   4.5326374  37.1344877  40.7649862  11.4477700  52.8724685
  40.6646589  12.3972057  52.8036776  40.5471404  11.1195939  52.0000755
  39.9662933   8.6962625  29.4565363  40.8282097   9.0217523  29.7161180
  40.1513278   7.9094121  28.9438428  31.9830349  16.7784965  41.7345551
  31.2893821  16.3638917  41.2215506  32.7303340  16.8205501  41.1378970
  48.1195570   7.5691151  36.6000586  47.5394239   8.2275955  36.2178638
  47.8531503   6.7468496  36.1888003  46.5699136   6.9696209  38.8021906
  47.0698915   7.0812744  37.9936225  47.2134744   6.6657262  39.4422714
  40.6281132  14.8774839  51.6889747  40.1448214  15.6775199  51.8953636
  40.7142071  14.8882784  50.7357191  33.8967092  16.7103218  39.6111566
  33.8737780  16.8090906  38.6593449  34.2067728  17.5568369  39.9328732
  36.5554470  18.7679373  43.7258181  37.5097723  18.7363316  43.6588112
  36.3566993  18.3069997  44.5408407  37.1453852  17.3380489  46.2928978
  37.9646741  17.8324568  46.3163816  37.4190659  16.4212458  46.2646546
  46.9020448   9.7291242  35.6556934  46.0146303  10.0140892  35.4377129
  47.3174437   9.5685005  34.8084211  50.2534984   9.7537763  39.3711273
  51.0295374  10.2434215  39.6435890  49.5283118  10.1795817  39.8283143
  52.6907543  10.4665382  40.4285214  53.2852034  10.2261118  39.7178522
  52.7634126   9.7472513  41.0558750  34.9104698  24.3098993  40.7428379
  34.7759166  23.5499394  40.1766377  34.4936761  25.0339893  40.2757167
  46.0463661  19.4935916  29.7504954  46.7499512  19.6985919  30.3662609
  45.3226310  20.0612678  30.0154037  46.8761472  15.2445778  35.8707224
  46.8196673  15.7014329  35.0314856  47.4289814  14.4836462  35.6930067
  50.6866278  11.0335510  36.6957344  50.4303212  10.6332145  37.5265551
  50.0619146  11.7479303  36.5707483  54.9978615  13.7731583  39.2028635
  54.4378173  13.8424772  39.9760197  54.3922119  13.5972567  38.4828131
  38.0673824  25.2068310  40.9546821  37.9506208  26.1513742  40.8525511
  37.2466271  24.9041871  41.3432620  47.9550359  19.9318446  31.8003414
  48.7895963  19.4999644  31.6180889  47.7934702  19.7600459  32.7280308
  47.6096251  16.4350559  33.1659753  47.5545055  16.2694830  32.2248197
  46.9842306  17.1426592  33.3221943  32.3988766  11.6718623  46.9921175
  33.0447630  11.1617577  47.4808401  32.1905917  12.4087305  47.5664601
  44.9242158  18.7399471  52.4913316  45.7933318  18.9140123  52.1299951
  44.4448910  19.5593888  52.3689045  40.9192376   5.9358668  32.7445072
  40.9071046   6.8800508  32.9013342  41.8115798   5.7528813  32.4504533
  39.0928338  25.8596572  44.1702750  39.9955585  25.8920182  44.4869245
  38.8665708  24.9297023  44.1849085  40.8481940  24.6127558  40.8312828
  39.8977571  24.6129420  40.7177201  41.1514427  23.8660293  40.3148863
  44.7344496   2.5301445  36.9991008  43.9676892   1.9759931  37.1447691
  45.1455201   2.6023313  37.8605160  36.7386257   8.8186240  51.0896190
  37.6017719   8.4623045  51.2999514  36.1651668   8.4800135  51.7771594
  51.0932620  29.1703772  31.1637055  51.3458140  28.6485294  30.4020518
  50.1557179  29.0069918  31.2663739  56.1375902  28.1739551  38.9711799
  56.9238992  27.7558974  38.6202216  56.4014607  29.0785643  39.1393447
  61.5384330  28.1114784  39.8744777  62.2709501  27.5414001  40.1082607
  60.7823685  27.7236384  40.3151283  50.8128908  31.0731878  33.3661430
  50.6965166  30.3976782  34.0342515  50.9231168  30.5864252  32.5493583
  53.1560449  30.5342025  37.0708120  52.7918656  30.0072646  37.7821041
  54.0127565  30.1440494  36.8974605  59.0609750  21.8236358  44.3339386
  58.7293075  22.6931769  44.1100601  58.4655363  21.5072642  45.0133416
  52.7965936  25.5631925  32.0669468  52.9640339  26.4312161  32.4339939
  52.6063105  25.7259207  31.1430757  49.0053751  30.4762701  39.7672003
  48.0804247  30.3438915  39.9749695  49.2538164  31.2556920  40.2641945
  58.9538413  26.5431444  41.4132736  58.0455291  26.4746853  41.1191497
  58.9026009  27.0203389  42.2414561  52.7755157  28.0189582  33.0516135
  52.6554782  28.4646633  33.8901615  52.0807745  28.3674900  32.4929673
  46.3662562  30.1195974  40.6015792  46.4954943  30.3730453  41.5155204
  45.6860013  30.7123682  40.2820447  60.8200060  24.7447882  43.1910610
  60.1774440  25.0380416  42.5450404  60.3154988  24.6300803  43.9963806
  58.4740223  28.4911056  33.8796469  59.3858079  28.7238442  33.7044167
  57.9649870  29.0748100  33.3171548  56.2611506  25.5112659  46.5472492
  56.0172438  26.2654719  46.0106768  56.5371437  25.8898006  47.3819739
  55.8176198  24.6669092  42.1286330  54.9560677  24.9650345  42.4203067
  55.8438633  24.8839491  41.1967363  51.5706654  29.3334435  35.3449701
  52.2730697  29.7855478  35.8123627  51.2387282  28.6918253  35.9729594
  45.3131987  27.5917987  40.6466834  44.5231041  27.8475516  40.1706945
  45.8043235  28.4066325  40.7518875  47.2646733  27.9562566  37.6050311
  46.4677896  28.0681261  38.1233807  47.0372325  28.2949219  36.7391202
  43.5969690  27.8448478  43.0781825  43.8477729  28.7295488  43.3439401
  44.1329239  27.6653079  42.3056917  67.4201790  31.2761975  39.7457087
  66.6665498  30.7069373  39.5901091  67.5549331  31.2424639  40.6927721
  49.2967758  22.2266957  52.0826161  48.9034703  21.6733156  52.7573805
  50.1133898  22.5377536  52.4732679  52.2135719  23.6424836  49.6746418
  52.9545432  24.2431989  49.5950880  52.4453642  22.9002474  49.1164460
  56.1592882  19.6705939  43.9510699  55.8157151  20.5607581  43.8749810
  56.5271844  19.4807597  43.0880284  44.2278732  31.9939470  36.7699302
  45.0653954  32.4036478  36.5533009  44.4057000  31.0538912  36.7399495
  56.1243164  29.6614550  32.4583135  55.6089788  30.4319155  32.6971522
  55.8520473  28.9879686  33.0816196  53.7090275  24.5064251  37.5168373
  52.8531872  24.1171101  37.3374012  54.1217227  24.5856212  36.6568158
  55.2389422  22.0410594  41.9159933  54.7354218  22.0040729  41.1027738
  55.5320029  22.9503337  41.9756589  51.4832308  22.1249324  40.9226114
  52.3485305  21.9292133  40.5632004  51.5509817  21.8959676  41.8495471
  61.0977439  32.4146905  34.3936308  60.3206881  32.0758064  33.9491470
  61.7768920  32.4199528  33.7191273  55.9129468  27.5341642  34.2842916
  55.6079603  27.8487791  35.1353059  56.8659910  27.6123062  34.3270249
  49.0894627  24.3551532  38.2942481  49.6638379  24.1326713  37.5615674
  49.6765609  24.4240226  39.0471083  58.1474204  30.2425259  39.1006858
  58.6606086  30.8755251  39.6028567  58.7975428  29.6426454  38.7350218
  49.4164214  26.3855993  32.3138366  48.5801526  26.7230679  32.6347641
  49.2768984  26.2504973  31.3765503  51.3917295  21.2292781  37.0217551
  50.7381707  20.9141798  36.3974165  51.3497769  20.6068521  37.7477374
  52.5028500  31.5112076  28.9370843  51.5955561  31.2801329  29.1361992
  52.9999532  30.7149695  29.1244824  54.6255035  27.7174714  41.3465198
  53.7077596  27.9389661  41.1886886  55.0415179  27.7921025  40.4876906
  55.4090083  29.1166130  36.4767879  56.1561902  29.6287527  36.1675001
  55.6781672  28.7950183  37.3372272  53.6816733  31.6124671  33.4594833
  52.7727952  31.3283704  33.5567303  53.7111817  32.0323749  32.5998140
  57.8568920  26.1523246  38.4586668  57.1191677  25.6400632  38.7896910
  58.1095694  25.7123628  37.6469945  57.9580547  18.9299498  39.0528437
  58.2639424  18.0696862  38.7654352  58.6833152  19.5217118  38.8527431
  44.2504903  29.3330185  37.4410035  44.0529303  28.7399546  36.7161102
  43.6951567  29.0282395  38.1585974  52.2301627  29.2253291  39.5604628
  52.2850237  28.2727128  39.4847105  51.4192829  29.3812730  40.0445927
  53.3792821  33.1533414  30.7982911  52.9412251  32.4369273  30.3388549
  54.1203262  33.3809529  30.2368003  50.1693987  27.8430351  37.3195007
  49.3561853  28.1424522  37.7260199  50.6652981  27.4486040  38.0369489
  61.4965936  31.4290611  36.8559230  61.3583834  31.6192207  35.9280419
  61.1402154  32.1909994  37.3127281  49.6608062  25.4148707  42.9356242
  50.3007441  25.2737466  42.2379205  48.8285592  25.1283220  42.5594844
  46.7451129  28.8594219  35.1250987  45.8148717  28.7978674  35.3420949
  46.8408601  28.3370172  34.3287628  46.6636678  25.3849032  37.7129229
  46.9243495  26.2994365  37.6038389  47.4853851  24.9173474  37.8625842
  54.0387176  23.4248730  46.8993714  53.3915091  24.1238679  46.8058191
  54.8088191  23.8584874  47.2669962  57.5004048  32.0117796  30.3914969
  56.8833219  31.2864624  30.2948022  57.0320537  32.7727156  30.0482043
  49.2902594  26.2303220  29.5136273  48.4132061  26.1092021  29.1498520
  49.7660347  25.4389299  29.2615162  40.8104735  31.0180380  39.6077780
  41.4975774  30.7042110  39.0198796  40.6552863  31.9221745  39.3345032
  45.6139457  25.9070577  44.0362804  45.5297645  25.2996246  43.3013214
  44.7922163  26.3979595  44.0372300  55.7863171  24.3924140  39.4032999
  56.2831870  23.6394102  39.0834069  55.0150152  24.4288457  38.8376208
  63.6392928  30.0964506  41.0451291  63.6282804  30.9789221  40.6745224
  62.7710307  29.7436057  40.8505828  52.3698139  26.5341523  39.1304684
  51.9995927  25.9812564  39.8185589  52.8657232  25.9299657  38.5779684
  60.2565503  28.9913147  37.5121457  60.7225955  29.8241138  37.4381759
  60.7073003  28.5258128  38.2166715  58.2282165  21.3593734  41.5512358
  57.3145245  21.5897961  41.7194565  58.6575267  21.4432178  42.4026390
  40.3872711  29.0980973  41.8795248  40.4256810  28.5644564  42.6732366
  39.8813003  28.5716179  41.2606225  47.7663473  23.9445514  45.3757790
  47.8304799  24.8060345  44.9635188  47.7030593  23.3319516  44.6430148
  47.2415745  26.0168646  49.0230824  47.8687784  25.6345724  49.6368348
  46.3843664  25.7982848  49.3886517  44.0181288  27.8245076  34.9549179
  44.3134729  26.9155754  34.9016233  43.1169324  27.8032815  34.6330181
  47.5475535  25.9001072  40.9376728  46.8262121  26.5137040  40.7984201
  48.3368791  26.4358837  40.8593373  50.3501849  23.2355499  47.2117379
  50.8736251  23.4817795  47.9743689  50.1314182  24.0675533  46.7920517
  45.7469130  25.5059173  35.0788504  45.4181836  24.6256552  34.8963610
  46.1008500  25.4506842  35.9664893  48.8610953  25.7932143  35.4463982
  49.2007025  26.3218064  34.7242590  49.3083073  26.1312549  36.2222548
  51.5554394  24.1769194  44.8967050  51.2151214  23.3777007  45.2987730
  50.8493400  24.4770905  44.3243883  52.2070866  21.2618506  43.3494373
  53.0296935  20.7878984  43.2273263  52.4508929  22.0408990  43.8493059
  50.8479100  24.2906765  33.6457275  51.5687463  24.6688017  33.1420991
  50.2244404  25.0095641  33.7492252  54.9910223  24.9951914  34.5815607
  55.2073837  25.8776551  34.2804435  54.5104290  24.6038127  33.8521249
  49.7309444  27.9537627  41.1586351  49.5854025  28.2677930  42.0510633
  49.2534648  28.5722527  40.6057250  51.5905827  24.9440175  41.2067241
  51.5767396  24.0481268  40.8699539  52.3078255  24.9510839  41.8405527
  53.4431958  25.3777515  43.2520368  53.1849736  26.2994586  43.2504699
  52.9116998  24.9807950  43.9420833  50.9942723  23.8254555  36.4754811
  51.1158634  22.8971201  36.6745699  50.7044766  23.8393241  35.5633127
  53.8633914  21.5109466  39.6121531  53.8855610  21.5748799  38.6573511
  54.2801973  20.6713974  39.8062037  64.2417538  31.2464725  37.6500754
  64.6848684  30.4972050  37.2519877  63.3644048  31.2374861  37.2674486
  50.4783803  25.3386552  50.6844744  50.5271958  26.2148675  50.3022513
  51.0206317  24.7963946  50.1116387  58.3740286  28.7151070  48.5937916
  59.2750149  28.5757535  48.3021914  58.4488260  28.8805525  49.5336093
  52.7083091  26.0917925  47.4391102  51.8386401  26.3851491  47.1673691
  52.9442572  26.6758370  48.1598366  63.7850403  32.7169963  40.0423201
  64.6197294  33.1559767  40.2060761  63.9209531  32.2408617  39.2231447
  47.7225415  31.4373865  35.5731767  47.4771457  30.5336195  35.7711977
  47.8921330  31.4391016  34.6311245  55.4122125  22.3097542  44.9556523
  55.9304069  23.0458569  44.6303011  55.0577258  22.6161535  45.7903282
  46.9921063  27.1702223  33.0717929  46.2990308  27.2446578  32.4157965
  46.7472815  26.4062567  33.5939446  55.6634719  18.7297824  40.4757419
  55.9436473  18.0621013  41.1017846  56.4485326  18.9226920  39.9632083
  59.5343578  27.1515458  44.2228994  60.4861000  27.2513556  44.2441219
  59.3647028  26.3593727  44.7327079  57.5557957  24.2371042  44.4088395
  56.9607889  24.5176054  43.7134884  57.2707654  24.7264942  45.1805136
  62.0131655  30.3721578  43.3371294  61.9807975  29.4337579  43.5230978
  62.6232279  30.4505615  42.6037119  53.8514986  29.2417631  29.3798498
  54.7974091  29.1123839  29.4486916  53.4729231  28.5032293  29.8567926
  62.1626144  27.1632621  43.3829577  61.6465192  26.3791078  43.1959506
  63.0466092  26.8351338  43.5476097  59.8236871  20.9073637  39.3425390
  59.6261692  20.5988725  40.2268722  60.4336576  21.6335276  39.4723320
  67.8308205  31.4337585  42.4777331  68.5611594  31.1722873  43.0385034
  67.2215151  30.6966307  42.5179399  65.9123502  29.5745447  43.0751782
  65.1856666  29.4401412  42.4668274  65.4970789  29.8822276  43.8808500
  52.0357903  27.1667607  29.3153383  51.1289359  26.8700720  29.3916097
  52.3133884  26.8697425  28.4487670  42.9535844  28.4873971  39.7652430
  42.6338628  27.6339279  39.4726804  42.4069272  28.7022549  40.5210397
  53.6519969  21.7104497  35.4697625  52.8420697  21.3651582  35.8452871
  54.3404386  21.4012041  36.0585236  55.5810517  20.7882544  37.0921921
  56.1341556  21.2077997  37.7511944  55.8180604  19.8618292  37.1344877
  50.8056688  24.0254543  29.4565363  51.6675852  24.3509441  29.7161180
  50.9907032  23.2386038  28.9438428  42.8224104  32.1076882  41.7345551
  42.1287575  31.6930835  41.2215506  43.5697095  32.1497419  41.1378970
  58.9589324  22.8983069  36.6000586  58.3787993  23.5567873  36.2178638
  58.6925257  22.0760414  36.1888003  57.4092891  22.2988127  38.8021906
  57.9092669  22.4104661  37.9936225  58.0528499  21.9949180  39.4422714
  44.7360846  32.0395136  39.6111566  44.7131534  32.1382823  38.6593449
  45.0461483  32.8860287  39.9328732  57.7414202  25.0583159  35.6556934
  56.8540057  25.3432810  35.4377129  58.1568192  24.8976923  34.8084211
  61.0928739  25.0829680  39.3711273  61.8689129  25.5726133  39.6435890
  60.3676873  25.5087735  39.8283143  63.5301297  25.7957300  40.4285214
  64.1245788  25.5553036  39.7178522  63.6027881  25.0764430  41.0558750
  56.8857416  34.8227834  29.7504954  57.5893266  35.0277837  30.3662609
  56.1620065  35.3904596  30.0154037  57.7155226  30.5737695  35.8707224
  57.6590428  31.0306247  35.0314856  58.2683569  29.8128380  35.6930067
  61.5260032  26.3627427  36.6957344  61.2696966  25.9624063  37.5265551
  60.9012900  27.0771221  36.5707483  65.8372370  29.1023500  39.2028635
  65.2771928  29.1716690  39.9760197  65.2315873  28.9264485  38.4828131
  58.4490005  31.7642477  33.1659753  58.3938809  31.5986748  32.2248197
  57.8236061  32.4718510  33.3221943  43.2382520  27.0010541  46.9921175
  43.8841384  26.4909495  47.4808401  43.0299672  27.7379223  47.5664601
  51.7586131  21.2650586  32.7445072  51.7464801  22.2092426  32.9013342
  52.6509553  21.0820731  32.4504533  55.5738250  17.8593362  36.9991008
  54.8070646  17.3051849  37.1447691  55.9848955  17.9315231  37.8605160
  47.5780011  24.1478158  51.0896190  48.4411473  23.7914963  51.2999514
  47.0045422  23.8092053  51.7771594  70.2147074  53.1286984  33.1307352
  70.9097978  53.7493677  33.3494667  70.5570224  52.2782335  33.4059730
  70.1547219  52.8351756  30.1294976  70.0760850  52.5011620  31.0230733
  70.9756885  53.3273524  30.1286448  76.6766124  44.4315418  39.2028635
  76.1165682  44.5008607  39.9760197  76.0709628  44.2556403  38.4828131
  69.6337868  50.5902281  31.8003414  70.4683472  50.1583479  31.6180889
  69.4722211  50.4184295  32.7280308  66.4132005  33.1885280  36.9991008
  65.6464401  32.6343767  37.1447691  66.8242710  33.2607149  37.8605160
  78.2622143  61.1071932  41.8958591  78.9000553  60.9878679  41.1921931
  78.1442986  62.0552776  41.9546543  75.0711849  61.0599360  41.8320115
  74.7330361  60.9440425  40.9440650  75.9401617  60.6590525  41.8121121
  70.9298665  62.9134837  37.8217006  70.3663530  62.8224774  37.0533294
  70.8151060  62.0934741  38.3019499  76.5098224  66.5805804  33.1331471
  75.8586203  67.1659885  32.7465485  77.3042586  67.1111999  33.1926509
  70.4353851  63.6694941  33.5318606  71.2084727  63.1223929  33.3931481
  70.7879250  64.5339191  33.7433067  72.7720129  59.8287608  31.1637055
  73.0245649  59.3069129  30.4020518  71.8344688  59.6653753  31.2663739
  77.8163411  58.8323386  38.9711799  78.6026501  58.4142809  38.6202216
  78.0802116  59.7369478  39.1393447  77.9873489  64.2696236  33.6700455
  77.3519322  64.3430863  34.3821360  77.6570895  64.8589835  32.9919535
  83.2171839  58.7698619  39.8744777  83.9497010  58.1997836  40.1082607
  82.4611194  58.3820220  40.3151283  72.4916417  61.7315714  33.3661430
  72.3752675  61.0560617  34.0342515  72.6018677  61.2448087  32.5493583
  74.8347958  61.1925861  37.0708120  74.4706165  60.6656482  37.7821041
  75.6915074  60.8024330  36.8974605  74.4753445  56.2215760  32.0669468
  74.6427848  57.0895997  32.4339939  74.2850614  56.3843042  31.1430757
  77.2328778  64.6832739  43.7335299  76.9329501  65.5857778  43.6251106
  76.8879838  64.4164922  44.5856451  70.6841260  61.1346536  39.7672003
  69.7591756  61.0022750  39.9749695  70.9325673  61.9140755  40.2641945
  80.6325922  57.2015279  41.4132736  79.7242800  57.1330688  41.1191497
  80.5813518  57.6787224  42.2414561  74.4542666  58.6773418  33.0516135
  74.3342291  59.1230469  33.8901615  73.7595254  59.0258736  32.4929673
  68.0450071  60.7779810  40.6015792  68.1742452  61.0314289  41.5155204
  67.3647522  61.3707518  40.2820447  72.2149558  71.4477060  36.7006266
  72.1373588  72.3984885  36.7794747  71.6111202  71.1022932  37.3581193
  82.4987569  55.4031718  43.1910610  81.8561949  55.6964251  42.5450404
  81.9942497  55.2884638  43.9963806  80.1527732  59.1494891  33.8796469
  81.0645588  59.3822278  33.7044167  79.6437379  59.7331935  33.3171548
  78.7597315  64.1320709  41.2710050  78.1306177  64.2966424  40.5686118
  78.3722977  64.5462319  42.0421015  82.6386546  65.0675147  38.6254414
  81.9537585  65.4474049  38.0751448  82.7230396  65.6770474  39.3586362
  79.8937478  62.7135106  45.2249758  80.1054373  63.3566866  44.5484139
  79.8467226  61.8797423  44.7571688  74.3125276  63.8695118  38.5360136
  74.7763622  64.1482821  37.7464758  74.0482075  62.9678562  38.3533226
  73.2494162  59.9918270  35.3449701  73.9518206  60.4439314  35.8123627
  72.9174791  59.3502089  35.9729594  66.9919496  58.2501823  40.6466834
  66.2018550  58.5059351  40.1706945  67.4830744  59.0650160  40.7518875
  81.0083306  65.5907062  43.3972115  81.8300750  65.1887249  43.1154797
  81.0045709  65.4875296  44.3488231  68.9434242  58.6146402  37.6050311
  68.1465405  58.7265096  38.1233807  68.7159834  58.9533054  36.7391202
  89.0989299  61.9345810  39.7457087  88.3453007  61.3653208  39.5901091
  89.2336840  61.9008475  40.6927721  74.4887927  66.8059213  35.4211806
  74.3533602  67.6510748  35.8496654  75.0297740  67.0078490  34.6577740
  67.9417324  64.3234651  35.9939731  68.4541845  65.1177901  36.1445296
  68.5940037  63.6260941  35.9273332  69.7512209  67.4400407  38.0762484
  69.9278838  68.3618372  37.8883468  70.5469043  67.1258826  38.5056864
  76.1156403  67.4282779  49.5512148  75.6720258  66.6419158  49.2333053
  76.7773617  67.6161930  48.8856039  78.2137642  67.7085579  47.5793549
  78.1956117  68.5294460  47.0873818  79.1357562  67.5839654  47.8043690
  65.9066241  62.6523305  36.7699302  66.7441463  63.0620313  36.5533009
  66.0844509  61.7122747  36.7399495  77.8030673  60.3198386  32.4583135
  77.2877297  61.0902990  32.6971522  77.5307982  59.6463522  33.0816196
  82.7764948  63.0730740  34.3936308  81.9994390  62.7341900  33.9491470
  83.4556428  63.0783363  33.7191273  77.5916977  58.1925478  34.2842916
  77.2867112  58.5071627  35.1353059  78.5447419  58.2706898  34.3270249
  76.0363408  64.3515701  35.9335870  75.5084770  63.6168461  35.6209107
  75.5350911  65.1290377  35.6875838  81.0156254  62.5464721  41.0502916
  80.3579929  63.2363983  41.1383045  81.8196654  62.9361153  41.3936902
  79.8261713  60.9009094  39.1006858  80.3393595  61.5339086  39.6028567
  80.4762937  60.3010290  38.7350218  71.0951723  57.0439828  32.3138366
  70.2589035  57.3814515  32.6347641  70.9556493  56.9088808  31.3765503
  74.1816009  62.1695911  28.9370843  73.2743070  61.9385165  29.1361992
  74.6787041  61.3733530  29.1244824  77.0884087  70.8793418  31.8567529
  76.4145786  71.1825115  32.4652487  77.4749909  71.6822499  31.5072986
  76.3042544  58.3758550  41.3465198  75.3865105  58.5973497  41.1886886
  76.7202688  58.4504860  40.4876906  77.0877592  59.7749965  36.4767879
  77.8349411  60.2871363  36.1675001  77.3569181  59.4534018  37.3372272
  75.3604242  62.2708506  33.4594833  74.4515461  61.9867539  33.5567303
  75.3899326  62.6907585  32.5998140  80.5923509  65.8815096  37.2286000
  80.1385837  65.0406005  37.2851191  79.9617476  66.5176494  37.5660781
  79.5356429  56.8107082  38.4586668  78.7979186  56.2984468  38.7896910
  79.7883203  56.3707463  37.6469945  79.0356449  67.7191592  38.1635819
  79.3279423  68.2796649  37.4448184  79.5455069  68.0120153  38.9188978
  65.9292412  59.9914020  37.4410035  65.7316812  59.3983381  36.7161102
  65.3739076  59.6866230  38.1585974  73.9089136  59.8837127  39.5604628
  73.9637746  58.9310963  39.4847105  73.0980338  60.0396566  40.0445927
  75.0580330  63.8117250  30.7982911  74.6199760  63.0953109  30.3388549
  75.7990771  64.0393365  30.2368003  71.8481496  58.5014186  37.3195007
  71.0349362  58.8008357  37.7260199  72.3440490  58.1069875  38.0369489
  73.9990074  68.4971943  39.2529272  73.9566253  68.7232790  38.3237804
  74.9152773  68.2635318  39.4015073  83.1753445  62.0874447  36.8559230
  83.0371343  62.2776043  35.9280419  82.8189663  62.8493830  37.3127281
  83.2022824  64.1550974  41.8670501  83.6359331  64.0626263  42.7153555
  83.9154405  64.1308474  41.2290517  72.1155875  65.3734972  39.0491234
  72.9096473  64.8785293  38.8473809  71.4047567  64.8452836  38.6858940
  76.9350719  67.7553068  43.4003602  76.9887741  68.3244004  44.1681318
  76.0665500  67.9254953  43.0357639  68.4238638  59.5178054  35.1250987
  67.4936226  59.4562510  35.3420949  68.5196110  58.9954007  34.3287628
  84.0638374  64.1974674  44.4003387  84.2574264  65.1020485  44.6462662
  83.9638992  63.7382094  45.2341972  74.6927151  65.9463994  42.7289072
  74.5538236  65.5782779  43.6015010  73.9041747  66.4611634  42.5573029
  75.2875303  71.0473091  34.0714608  75.4627058  70.5761134  34.8860231
  74.6008091  71.6738857  34.2995869  76.2432366  65.3245597  40.1177909
  75.9082198  65.2846367  41.0135559  75.7436311  64.6590313  39.6448320
  79.1791557  62.6701631  30.3914969  78.5620728  61.9448460  30.2948022
  78.7108046  63.4310992  30.0482043  80.8345689  67.3800540  48.0520749
  80.7758235  66.6959760  47.3851332  81.2365207  68.1219530  47.6001375
  69.8536388  74.1962454  40.8454468  70.0932986  74.8280978  41.5233487
  69.0105584  73.8450494  41.1319827  70.9690103  56.8887056  29.5136273
  70.0919570  56.7675856  29.1498520  71.4447856  56.0973134  29.2615162
  80.8363096  65.3440124  46.2834729  79.9489875  65.0066045  46.4061128
  81.4061647  64.6123155  46.5203494  67.2926966  56.5654412  44.0362804
  67.2085154  55.9580082  43.3013214  66.4709672  57.0563430  44.0372300
  74.3664250  70.0041576  43.2495972  74.2934421  70.8096548  43.7615277
  73.9241643  70.2033542  42.4243994  74.1554029  69.2413346  36.7598794
  73.3721551  69.7835026  36.8537018  74.8546775  69.7587326  37.1593035
  85.3180437  60.7548341  41.0451291  85.3070313  61.6373056  40.6745224
  84.4497816  60.4019892  40.8505828  76.8262933  69.9028410  45.4054131
  77.5390905  70.5375875  45.3330032  76.3352962  69.9992276  44.5894133
  78.5480460  63.8079663  36.9771423  77.6136739  63.9281125  36.8076127
  78.7257129  62.9052130  36.7131432  81.9353012  59.6496982  37.5121457
  82.4013464  60.4824974  37.4381759  82.3860512  59.1841964  38.2166715
  80.0029243  65.9940803  34.5107609  80.2789087  65.8797398  35.4201483
  79.1333741  65.5958288  34.4719782  76.6383307  70.2427154  38.1540422
  76.8205701  69.4248810  38.6168175  77.4616293  70.4594846  37.7165312
  76.9725472  69.1695339  35.4155471  77.5013239  68.6587794  34.8025633
  77.2353692  68.8537870  36.2801004  70.3281220  70.2210456  38.1753247
  69.6591595  70.7056584  37.6917287  70.1894090  70.4679676  39.0896625
  74.4686489  72.2554199  44.7735905  75.0204797  72.4185821  45.5384990
  74.8092682  72.8458637  44.1015930  79.3197363  67.0815457  50.6284560
  79.8637267  67.6945415  50.1339514  78.7384208  67.6395035  51.1451573
  65.6968797  58.4828911  34.9549179  65.9922238  57.5739589  34.9016233
  64.7956833  58.4616650  34.6330181  77.6054876  70.2036175  41.7599587
  77.4806015  69.4025915  41.2510533  78.2633967  70.6982368  41.2713557
  79.6689784  68.0045195  43.3879137  78.7220120  67.8850546  43.3157464
  80.0172557  67.1167693  43.4705399  67.4256639  56.1643009  35.0788504
  67.0969345  55.2840388  34.8963610  67.7796009  56.1090677  35.9664893
  76.6736218  67.7997911  39.5883490  76.5261180  66.8714619  39.7691060
  77.4989711  67.8218002  39.1040565  70.5398462  56.4515978  35.4463982
  70.8794534  56.9801900  34.7242590  70.9870582  56.7896385  36.2222548
  80.2770339  68.6226470  40.6748362  81.2016887  68.4169331  40.5372813
  80.1085643  68.3742871  41.5837704  72.5266609  54.9490600  33.6457275
  73.2474972  55.3271853  33.1420991  71.9031913  55.6679477  33.7492252
  76.6697732  55.6535749  34.5815607  76.8861346  56.5360387  34.2804435
  76.1891799  55.2621962  33.8521249  80.0665656  69.1412137  36.0310454
  80.2402533  68.5758560  35.2784306  80.5594547  69.9413032  35.8489944
  85.9205047  61.9048560  37.6500754  86.3636193  61.1555886  37.2519877
  85.0431557  61.8958697  37.2674486  81.0540828  68.4578902  33.1307352
  81.7491733  69.0785595  33.3494667  81.3963978  67.6074253  33.4059730
  82.9532251  65.9078607  34.6594683  83.4783575  66.2465880  33.9344003
  82.8654604  64.9725623  34.4757817  74.6152300  69.8212681  46.7884559
  74.9239426  69.5761828  47.6607259  75.4127782  70.0259320  46.3003430
  74.6372912  71.9750591  39.0189936  74.1977902  71.4826969  39.7122793
  75.3881029  71.4323558  38.7782011  67.1165251  68.1662132  39.0214564
  67.9423271  67.8665903  38.6413208  66.7659303  67.3969754  39.4704353
  65.3173856  66.0848458  39.9803498  64.4805764  65.6570632  39.7987499
  65.2897502  66.2780901  40.9174289  82.6426157  66.5411511  49.9645881
  81.8521701  66.5235650  49.4250380  82.4059512  67.0799805  50.7194917
  82.7624032  63.3903977  47.2778609  82.8122037  63.2253985  48.2194132
  82.6537956  62.5231236  46.8876490  71.6460291  66.0692523  34.5670698
  71.7948411  66.7527988  33.9137371  72.4526735  66.0497613  35.0820154
  84.2642229  65.8100919  47.5220631  83.9727038  66.1730900  48.3584092
  83.6514361  65.0967927  47.3433963  85.4637912  63.3753799  40.0423201
  86.2984803  63.8143603  40.2060761  85.5997040  62.8992452  39.2231447
  69.4012924  62.0957701  35.5731767  69.1558966  61.1920031  35.7711977
  69.5708839  62.0974851  34.6311245  68.6708572  57.8286058  33.0717929
  67.9777817  57.9030413  32.4157965  68.4260324  57.0646402  33.5939446
  75.1455697  68.5640654  32.0382446  74.5729664  69.1830841  31.5852918
  75.7188490  69.1140015  32.5722368  78.3652956  68.8477804  33.1691028
  79.2983630  68.7823365  33.3723903  78.2776169  69.6834071  32.7105561
  80.9940973  68.1643674  30.1294976  80.9154605  67.8303538  31.0230733
  81.8150640  68.6565442  30.1286448  83.6919164  61.0305413  43.3371294
  83.6595484  60.0921414  43.5230978  84.3019788  61.1089450  42.6037119
  75.5302495  59.9001466  29.3798498  76.4761600  59.7707674  29.4486916
  75.1516740  59.1616128  29.8567926  83.8413653  57.8216457  43.3829577
  83.3252701  57.0374913  43.1959506  84.7253601  57.4935173  43.5476097
  89.5095714  62.0921420  42.4777331  90.2399103  61.8306708  43.0385034
  88.9002660  61.3550142  42.5179399  87.5911011  60.2329283  43.0751782
  86.8644175  60.0985248  42.4668274  87.1758298  60.5406111  43.8808500
  73.7145412  57.8251443  29.3153383  72.8076868  57.5284555  29.3916097
  73.9921393  57.5281261  28.4487670  64.6323353  59.1457806  39.7652430
  64.3126137  58.2923114  39.4726804  64.0856781  59.3606384  40.5210397
  72.4844197  54.6838378  29.4565363  73.3463361  55.0093276  29.7161180
  72.6694541  53.8969874  28.9438428  80.6376833  53.5566904  36.6000586
  80.0575502  54.2151708  36.2178638  80.3712766  52.7344249  36.1888003
  66.4148355  62.6978971  39.6111566  66.3919043  62.7966659  38.6593449
  66.7248992  63.5444122  39.9328732  79.4201711  55.7166995  35.6556934
  78.5327566  56.0016645  35.4377129  79.8355700  55.5560758  34.8084211
  82.7716248  55.7413516  39.3711273  83.5476638  56.2309968  39.6435890
  82.0464382  56.1671570  39.8283143  85.2088806  56.4541135  40.4285214
  85.8033297  56.2136871  39.7178522  85.2815390  55.7348266  41.0558750
  67.4285962  70.2974746  40.7428379  67.2940430  69.5375147  40.1766377
  67.0118024  71.0215646  40.2757167  78.5644925  65.4811669  29.7504954
  79.2680775  65.6861672  30.3662609  77.8407574  66.0488431  30.0154037
  79.3942735  61.2321531  35.8707224  79.3377937  61.6890082  35.0314856
  79.9471078  60.4712215  35.6930067  83.2047541  57.0211263  36.6957344
  82.9484475  56.6207898  37.5265551  82.5800409  57.7355057  36.5707483
  87.5159879  59.7607336  39.2028635  86.9559437  59.8300525  39.9760197
  86.9103382  59.5848320  38.4828131  80.4731622  65.9194199  31.8003414
  81.3077226  65.4875397  31.6180889  80.3115965  65.7476212  32.7280308
  80.1277514  62.4226312  33.1659753  80.0726318  62.2570583  32.2248197
  79.5023570  63.1302345  33.3221943  73.4373640  51.9234421  32.7445072
  73.4252310  52.8676261  32.9013342  74.3297062  51.7404566  32.4504533
  71.6109602  71.8472325  44.1702750  72.5136849  71.8795935  44.4869245
  71.3846972  70.9172776  44.1849085  89.1015897  76.4363850  41.8958591
  89.7394307  76.3170597  41.1921931  88.9836740  77.3844694  41.9546543
  85.9105604  76.3891278  41.8320115  85.5724115  76.2732343  40.9440650
  86.7795372  75.9882443  41.8121121  81.7692419  78.2426754  37.8217006
  81.2057284  78.1516691  37.0533294  81.6544814  77.4226659  38.3019499
  86.3925387  77.5426130  47.7906321  86.3814027  77.1478928  46.9186825
  86.5546026  76.8092202  48.3840092  79.3156851  79.7377946  40.6601227
  80.1078143  79.3968771  40.2447526  79.5553501  79.8472921  41.5803380
  87.3491978  81.9097722  33.1331471  86.6979958  82.4951802  32.7465485
  88.1436341  82.4403917  33.1926509  81.2747605  78.9986859  33.5318606
  82.0478481  78.4515846  33.3931481  81.6273004  79.8631108  33.7433067
  83.1132648  80.3263241  46.7385505  82.8222514  81.2308872  46.6232171
  83.7489632  80.3679769  47.4529574  84.0388855  77.7040090  43.3286864
  84.6352427  77.4796112  42.6143827  84.0963826  76.9624835  43.9312312
  83.6113883  75.1579525  31.1637055  83.8639404  74.6361047  30.4020518
  82.6738442  74.9945671  31.2663739  88.6557166  74.1615304  38.9711799
  89.4420255  73.7434727  38.6202216  88.9195870  75.0661396  39.1393447
  88.8267243  79.5988154  33.6700455  88.1913076  79.6722780  34.3821360
  88.4964650  80.1881753  32.9919535  94.0565593  74.0990537  39.8744777
  94.7890765  73.5289754  40.1082607  93.3004949  73.7112137  40.3151283
  83.3310172  77.0607631  33.3661430  83.2146430  76.3852535  34.0342515
  83.4412432  76.5740005  32.5493583  85.6741713  76.5217778  37.0708120
  85.3099920  75.9948399  37.7821041  86.5308829  76.1316247  36.8974605
  91.5791013  67.8112111  44.3339386  91.2474338  68.6807522  44.1100601
  90.9836627  67.4948395  45.0133416  85.3147200  71.5507678  32.0669468
  85.4821602  72.4187914  32.4339939  85.1244369  71.7134960  31.1430757
  88.0722533  80.0124657  43.7335299  87.7723256  80.9149696  43.6251106
  87.7273592  79.7456840  44.5856451  81.5235014  76.4638454  39.7672003
  80.5985511  76.3314668  39.9749695  81.7719428  77.2432673  40.2641945
  91.4719677  72.5307197  41.4132736  90.5636554  72.4622606  41.1191497
  91.4207272  73.0079142  42.2414561  85.2936421  74.0065336  33.0516135
  85.1736046  74.4522386  33.8901615  84.5989009  74.3550653  32.4929673
  78.8843825  76.1071727  40.6015792  79.0136207  76.3606206  41.5155204
  78.2041277  76.6999435  40.2820447  83.0543313  86.7768977  36.7006266
  82.9767342  87.7276802  36.7794747  82.4504956  86.4314850  37.3581193
  85.5460542  73.9496843  49.3567633  84.7693877  74.5090763  49.3470498
  86.1851106  74.4353626  49.8782503  93.3381323  70.7323636  43.1910610
  92.6955703  71.0256169  42.5450404  92.8336252  70.6176556  43.9963806
  90.9921487  74.4786809  33.8796469  91.9039343  74.7114195  33.7044167
  90.4831134  75.0623853  33.3171548  83.8006915  76.7582296  48.9185600
  84.5421599  77.2967340  48.6420424  83.0943900  77.3848585  49.0757152
  89.2762254  78.9011437  47.5157762  89.6845610  78.4593847  46.7712394
  88.5539516  78.3264064  47.7691955  85.6293324  73.8384043  44.8891319
  86.4754520  74.2623457  45.0325968  85.5691962  73.1817668  45.5829882
  89.5991069  79.4612627  41.2710050  88.9699931  79.6258341  40.5686118
  89.2116731  79.8754237  42.0421015  93.4780301  80.3967065  38.6254414
  92.7931339  80.7765966  38.0751448  93.5624150  81.0062392  39.3586362
  88.7792770  71.4988412  46.5472492  88.5353702  72.2530472  46.0106768
  89.0552700  71.8773759  47.3819739  90.7331233  78.0427024  45.2249758
  90.9448128  78.6858784  44.5484139  90.6860981  77.2089341  44.7571688
  88.3357461  70.6544845  42.1286330  87.4741941  70.9526098  42.4203067
  88.3619896  70.8715244  41.1967363  85.1519031  79.1987035  38.5360136
  85.6157376  79.4774738  37.7464758  84.8875829  78.2970480  38.3533226
  82.0443112  78.7458517  41.4739899  82.6144469  79.1745785  40.8357383
  82.6351224  78.4641101  42.1724085  84.0887917  75.3210188  35.3449701
  84.7911960  75.7731231  35.8123627  83.7568545  74.6794006  35.9729594
  82.5368278  73.9121944  49.7200910  81.9066939  74.5938225  49.9536307
  82.4304366  73.8005026  48.7754048  77.8313251  73.5793740  40.6466834
  77.0412305  73.8351269  40.1706945  78.3224498  74.3942078  40.7518875
  91.8477060  80.9198979  43.3972115  92.6694504  80.5179167  43.1154797
  91.8439463  80.8167214  44.3488231  79.7827996  73.9438320  37.6050311
  78.9859160  74.0557014  38.1233807  79.5553589  74.2824972  36.7391202
  85.6133664  80.4683023  45.5532826  85.6778096  80.9303430  46.3890997
  84.9044588  79.8380388  45.6815135  76.1150954  73.8324231  43.0781825
  76.3658992  74.7171241  43.3439401  76.6510502  73.6528832  42.3056917
  99.9383054  77.2637728  39.7457087  99.1846762  76.6945126  39.5901091
 100.0730595  77.2300392  40.6927721  85.3281682  82.1351130  35.4211806
  85.1927356  82.9802666  35.8496654  85.8691494  82.3370408  34.6577740
  81.8149021  68.2142710  52.0826161  81.4215967  67.6608909  52.7573805
  82.6315162  68.5253289  52.4732679  78.7811079  79.6526568  35.9939731
  79.2935600  80.4469819  36.1445296  79.4333792  78.9552859  35.9273332
  80.5905964  82.7692325  38.0762484  80.7672592  83.6910289  37.8883468
  81.3862797  82.4550744  38.5056864  84.7316982  69.6300589  49.6746418
  85.4726696  70.2307742  49.5950880  84.9634905  68.8878227  49.1164460
  79.8758320  74.8156956  47.9524647  79.7611835  73.9142214  48.2531746
  79.0202838  75.0620653  47.6009464  86.9550158  82.7574697  49.5512148
  86.5114012  81.9711075  49.2333053  87.6167372  82.9453847  48.8856039
  81.7137279  84.2870498  44.0772827  82.2644704  84.1587562  43.3049820
  80.8748755  84.5865387  43.7267719  89.0531396  83.0377497  47.5793549
  89.0349871  83.8586378  47.0873818  89.9751316  82.9131572  47.8043690
  85.5104450  80.5521626  48.4217058  86.0432787  79.7909914  48.1916366
  84.9818531  80.2595278  49.1641212  88.6774145  65.6581692  43.9510699
  88.3338415  66.5483334  43.8749810  89.0453108  65.4683350  43.0880284
  76.7459996  77.9815223  36.7699302  77.5835218  78.3912231  36.5533009
  76.9238263  77.0414665  36.7399495  88.6424428  75.6490303  32.4583135
  88.1271051  76.4194908  32.6971522  88.3701736  74.9755439  33.0816196
  86.2271539  70.4940004  37.5168373  85.3713135  70.1046854  37.3374012
  86.6398491  70.5731965  36.6568158  87.7570686  68.0286347  41.9159933
  87.2535481  67.9916482  41.1027738  88.0501292  68.9379090  41.9756589
  84.0013571  68.1125077  40.9226114  84.8666568  67.9167886  40.5632004
  84.0691080  67.8835429  41.8495471  93.6158702  78.4022658  34.3936308
  92.8388145  78.0633817  33.9491470  94.2950183  78.4075281  33.7191273
  88.4310731  73.5217395  34.2842916  88.1260867  73.8363544  35.1353059
  89.3841173  73.5998815  34.3270249  86.8757163  79.6807619  35.9335870
  86.3478524  78.9460378  35.6209107  86.3744666  80.4582295  35.6875838
  91.8550009  77.8756639  41.0502916  91.1973683  78.5655901  41.1383045
  92.6590408  78.2653071  41.3936902  81.6075891  70.3427285  38.2942481
  82.1819642  70.1202466  37.5615674  82.1946873  70.4115979  39.0471083
  90.6655468  76.2301012  39.1006858  91.1787349  76.8631004  39.6028567
  91.3156692  75.6302207  38.7350218  81.9345478  72.3731746  32.3138366
  81.0982790  72.7106432  32.6347641  81.7950247  72.2380726  31.3765503
  83.9098558  67.2168534  37.0217551  83.2562971  66.9017551  36.3974165
  83.8679032  66.5944274  37.7477374  85.0209763  77.4987829  28.9370843
  84.1136825  77.2677082  29.1361992  85.5180795  76.7025448  29.1244824
  87.9277842  86.2085336  31.8567529  87.2539541  86.5117033  32.4652487
  88.3143664  87.0114416  31.5072986  87.1436299  73.7050467  41.3465198
  86.2258860  73.9265414  41.1886886  87.5596442  73.7796778  40.4876906
  87.9271346  75.1041883  36.4767879  88.6743165  75.6163280  36.1675001
  88.1962936  74.7825936  37.3372272  86.1997997  77.6000424  33.4594833
  85.2909216  77.3159457  33.5567303  86.2293080  78.0199502  32.5998140
  91.4317264  81.2107013  37.2286000  90.9779591  80.3697923  37.2851191
  90.8011231  81.8468412  37.5660781  90.3750183  72.1398999  38.4586668
  89.6372940  71.6276385  38.7896910  90.6276957  71.6999381  37.6469945
  89.8750203  83.0483510  38.1635819  90.1673178  83.6088567  37.4448184
  90.3848824  83.3412071  38.9188978  90.4761811  64.9175251  39.0528437
  90.7820688  64.0572615  38.7654352  91.2014416  65.5092871  38.8527431
  76.7686167  75.3205938  37.4410035  76.5710567  74.7275299  36.7161102
  76.2132831  75.0158148  38.1585974  84.7482891  75.2129044  39.5604628
  84.8031500  74.2602881  39.4847105  83.9374093  75.3688483  40.0445927
  85.8974084  79.1409167  30.7982911  85.4593514  78.4245026  30.3388549
  86.6384525  79.3685282  30.2368003  82.6875250  73.8306104  37.3195007
  81.8743116  74.1300275  37.7260199  83.1834245  73.4361793  38.0369489
  84.8383828  83.8263861  39.2529272  84.7960007  84.0524707  38.3237804
  85.7546527  83.5927236  39.4015073  88.2849462  74.2947929  46.1509901
  88.6398850  74.5219402  47.0104367  88.9321593  74.6266305  45.5287156
  94.0147199  77.4166364  36.8559230  93.8765098  77.6067960  35.9280419
  93.6583418  78.1785747  37.3127281  82.1789325  71.4024460  42.9356242
  82.8188705  71.2613219  42.2379205  81.3466856  71.1158973  42.5594844
  94.0416579  79.4842891  41.8670501  94.4753085  79.3918181  42.7153555
  94.7548159  79.4600392  41.2290517  82.9549629  80.7026890  39.0491234
  83.7490228  80.2077210  38.8473809  82.2441322  80.1744753  38.6858940
  87.7744474  83.0844986  43.4003602  87.8281496  83.6535922  44.1681318
  86.9059255  83.2546871  43.0357639  79.2632393  74.8469972  35.1250987
  78.3329981  74.7854427  35.3420949  79.3589865  74.3245925  34.3287628
  79.1817942  71.3724785  37.7129229  79.4424759  72.2870118  37.6038389
  80.0035114  70.9049227  37.8625842  80.6542867  72.7862542  44.8828053
  81.3265920  72.5779904  44.2340702  79.8272654  72.5884628  44.4433286
  94.9032128  79.5266592  44.4003387  95.0968018  80.4312403  44.6462662
  94.8032746  79.0674011  45.2341972  86.5568439  69.4124483  46.8993714
  85.9096354  70.1114432  46.8058191  87.3269454  69.8460627  47.2669962
  89.9647237  79.6773335  49.9744267  89.8132743  79.4483887  49.0574351
  89.9551916  80.6343936  49.9875612  86.7332573  77.2505248  44.9590534
  87.6624633  77.4016407  44.7859501  86.3123603  77.3389268  44.1039180
  85.5320905  81.2755912  42.7289072  85.3931991  80.9074696  43.6015010
  84.7435501  81.7903551  42.5573029  86.1269057  86.3765009  34.0714608
  86.3020813  85.9053052  34.8860231  85.4401845  87.0030775  34.2995869
  87.0826120  80.6537515  40.1177909  86.7475953  80.6138285  41.0135559
  86.5830066  79.9882231  39.6448320  81.0570364  76.0605145  45.6430490
  80.9190162  75.3285384  46.2442030  81.9675288  75.9714045  45.3614678
  90.0185312  77.9993549  30.3914969  89.4014483  77.2740377  30.2948022
  89.5501800  78.7602909  30.0482043  83.6852665  75.7725104  45.1314170
  84.3952283  75.1318296  45.0900789  83.6421973  76.0237999  46.0540351
  91.6739444  82.7092457  48.0520749  91.6151990  82.0251678  47.3851332
  92.0758962  83.4511447  47.6001375  82.3981599  72.7590322  46.9509810
  81.8618956  72.3081060  47.6031406  81.8098307  72.8936231  46.2080274
  80.6930142  89.5254371  40.8454468  80.9326741  90.1572895  41.5233487
  79.8499339  89.1742411  41.1319827  81.8083858  72.2178973  29.5136273
  80.9313324  72.0967774  29.1498520  82.2841611  71.4265052  29.2615162
  91.6756851  80.6732041  46.2834729  90.7883630  80.3357963  46.4061128
  92.2455402  79.9415073  46.5203494  73.3285998  77.0056133  39.6077780
  74.0157038  76.6917863  39.0198796  73.1734127  77.9097498  39.3345032
  78.1320720  71.8946330  44.0362804  78.0478909  71.2871999  43.3013214
  77.3103427  72.3855348  44.0372300  85.2058004  85.3333494  43.2495972
  85.1328176  86.1388465  43.7615277  84.7635397  85.5325460  42.4243994
  84.9947784  84.5705264  36.7598794  84.2115306  85.1126944  36.8537018
  85.6940529  85.0879243  37.1593035  88.3044434  70.3799893  39.4032999
  88.8013134  69.6269856  39.0834069  87.5331415  70.4164210  38.8376208
  96.1574191  76.0840259  41.0451291  96.1464068  76.9664974  40.6745224
  95.2891571  75.7311810  40.8505828  87.6656688  85.2320328  45.4054131
  88.3784660  85.8667793  45.3330032  87.1746716  85.3284194  44.5894133
  89.3874215  79.1371580  36.9771423  88.4530493  79.2573043  36.8076127
  89.5650883  78.2344047  36.7131432  84.8879403  72.5217276  39.1304684
  84.5177190  71.9688317  39.8185589  85.3838495  71.9175410  38.5779684
  92.7746766  74.9788900  37.5121457  93.2407218  75.8116891  37.4381759
  93.2254267  74.5133881  38.2166715  82.7168601  82.9814771  46.2259702
  83.4178061  83.6151254  46.3789096  82.2463716  83.3229503  45.4655341
  90.8422997  81.3232721  34.5107609  91.1182841  81.2089316  35.4201483
  89.9727496  80.9250206  34.4719782  90.7463429  67.3469487  41.5512358
  89.8326509  67.5773714  41.7194565  91.1756530  67.4307931  42.4026390
  90.5169887  75.5359379  44.0512252  89.8641338  75.7835286  43.3964705
  90.8950267  74.7223517  43.7174729  87.4777061  85.5719072  38.1540422
  87.6599456  84.7540728  38.6168175  88.3010047  85.7886764  37.7165312
  87.8119227  84.4987257  35.4155471  88.3406993  83.9879712  34.8025633
  88.0747446  84.1829787  36.2801004  86.5657460  76.2779190  50.5378289
  85.8898097  76.1773319  51.2080664  87.3885094  76.1218403  51.0014286
  78.3136319  82.5151126  43.1590804  78.8989756  81.7694814  43.2918709
  78.1161158  82.8255083  44.0427468  81.1674975  85.5502374  38.1753247
  80.4985350  86.0348501  37.6917287  81.0287844  85.7971594  39.0896625
  72.9053974  75.0856726  41.8795248  72.9438074  74.5520317  42.6732366
  72.3994267  74.5591932  41.2606225  85.3080243  87.5846117  44.7735905
  85.8598551  87.7477739  45.5384990  85.6486437  88.1750555  44.1015930
  80.2844736  69.9321267  45.3757790  80.3486063  70.7936098  44.9635188
  80.2211857  69.3195269  44.6430148  79.7597009  72.0044400  49.0230824
  80.3869048  71.6221477  49.6368348  78.9024928  71.7858601  49.3886517
  90.1591118  82.4107375  50.6284560  90.7031021  83.0237333  50.1339514
  89.5777962  82.9686953  51.1451573  76.5362552  73.8120829  34.9549179
  76.8315993  72.9031507  34.9016233  75.6350587  73.7908568  34.6330181
  88.4448630  85.5328093  41.7599587  88.3199770  84.7317833  41.2510533
  89.1027722  86.0274286  41.2713557  80.0656799  71.8876825  40.9376728
  79.3443384  72.5012793  40.7984201  80.8550054  72.4234590  40.8593373
  90.5083539  83.3337113  43.3879137  89.5613874  83.2142464  43.3157464
  90.8566312  82.4459611  43.4705399  82.8683112  69.2231252  47.2117379
  83.3917514  69.4693548  47.9743689  82.6495445  70.0551287  46.7920517
  78.2650393  71.4934926  35.0788504  77.9363099  70.6132305  34.8963610
  78.6189764  71.4382595  35.9664893  87.5129972  83.1289829  39.5883490
  87.3654935  82.2006536  39.7691060  88.3383466  83.1509920  39.1040565
  81.3792216  71.7807896  35.4463982  81.7188289  72.3093817  34.7242590
  81.8264337  72.1188302  36.2222548  91.1164094  83.9518388  40.6748362
  92.0410641  83.7461249  40.5372813  90.9479397  83.7034789  41.5837704
  84.0735657  70.1644947  44.8967050  83.7332478  69.3652760  45.2987730
  83.3674664  70.4646658  44.3243883  84.7252129  67.2494259  43.3494373
  85.5478198  66.7754737  43.2273263  84.9690193  68.0284743  43.8493059
  83.3660364  70.2782518  33.6457275  84.0868726  70.6563770  33.1420991
  82.7425668  70.9971394  33.7492252  87.5091486  70.9827667  34.5815607
  87.7255101  71.8652305  34.2804435  87.0285554  70.5913880  33.8521249
  82.2490708  73.9413380  41.1586351  82.1035289  74.2553683  42.0510633
  81.7715911  74.5598280  40.6057250  84.1087091  70.9315928  41.2067241
  84.0948659  70.0357021  40.8699539  84.8259519  70.9386592  41.8405527
  85.9613221  71.3653268  43.2520368  85.7030999  72.2870339  43.2504699
  85.4298262  70.9683703  43.9420833  90.9059410  84.4704055  36.0310454
  91.0796288  83.9050478  35.2784306  91.3988301  85.2704950  35.8489944
  76.7236370  76.4818724  44.0974013  76.1789838  77.2578532  44.2294287
  77.6015720  76.8289529  43.9393134  83.5123987  69.8130308  36.4754811
  83.6339898  68.8846954  36.6745699  83.2226029  69.8268994  35.5633127
  86.3815177  67.4985219  39.6121531  86.4036874  67.5624552  38.6573511
  86.7983236  66.6589727  39.8062037  96.7598801  77.2340478  37.6500754
  97.2029947  76.4847803  37.2519877  95.8825312  77.2250614  37.2674486
  91.8934583  83.7870820  33.1307352  92.5885487  84.4077512  33.3494667
  92.2357733  82.9366171  33.4059730  77.5102392  75.6088621  46.9904169
  76.7684128  75.7571256  47.5768800  77.1895136  75.8696886  46.1270919
  93.7926006  81.2370525  34.6594683  94.3177330  81.5757798  33.9344003
  93.7048358  80.3017540  34.4757817  85.4546054  85.1504599  46.7884559
  85.7633181  84.9053746  47.6607259  86.2521537  85.3551237  46.3003430
  85.4766667  87.3042508  39.0189936  85.0371657  86.8118887  39.7122793
  86.2274784  86.7615476  38.7782011  77.9559006  83.4954049  39.0214564
  78.7817025  83.1957821  38.6413208  77.6053058  82.7261672  39.4704353
  82.9240539  82.8480517  41.0912238  82.3020548  82.1851222  40.7914466
  83.5945406  82.8741649  40.4085885  76.1567611  81.4140376  39.9803498
  75.3199519  80.9862550  39.7987499  76.1291256  81.6072819  40.9174289
  82.9965066  71.3262305  50.6844744  83.0453222  72.2024428  50.3022513
  83.5387580  70.7839699  50.1116387  93.4819912  81.8703429  49.9645881
  92.6915456  81.8527568  49.4250380  93.2453266  82.4091722  50.7194917
  93.6017787  78.7195895  47.2778609  93.6515792  78.5545903  48.2194132
  93.4931710  77.8523154  46.8876490  82.4854046  81.3984441  34.5670698
  82.6342166  82.0819905  33.9137371  83.2920489  81.3789531  35.0820154
  90.8921549  74.7026823  48.5937916  91.7931412  74.5633288  48.3021914
  90.9669524  74.8681278  49.5336093  85.2264355  72.0793678  47.4391102
  84.3567664  72.3727244  47.1673691  85.4623835  72.6634123  48.1598366
  95.1035984  81.1392837  47.5220631  94.8120792  81.5022817  48.3584092
  94.4908115  80.4259845  47.3433963  96.3031666  78.7045716  40.0423201
  97.1378557  79.1435520  40.2060761  96.4390795  78.2284370  39.2231447
  93.3523172  76.2625451  45.9900689  93.8277294  76.4553098  45.1819540
  92.4288737  76.3184637  45.7444073  80.2406679  77.4249618  35.5731767
  79.9952721  76.5211948  35.7711977  80.4102593  77.4266769  34.6311245
  87.9303388  68.2973295  44.9556523  88.4485332  69.0334322  44.6303011
  87.5758521  68.6037288  45.7903282  79.5102326  73.1577976  33.0717929
  78.8171571  73.2322331  32.4157965  79.2654078  72.3938320  33.5939446
  88.1815983  64.7173577  40.4757419  88.4617736  64.0496766  41.1017846
  88.9666590  64.9102673  39.9632083  85.9849451  83.8932571  32.0382446
  85.4123418  84.5122758  31.5852918  86.5582245  84.4431933  32.5722368
  92.0524841  73.1391211  44.2228994  93.0042264  73.2389309  44.2441219
  91.8828291  72.3469480  44.7327079  90.0739220  70.2246795  44.4088395
  89.4789153  70.5051807  43.7134884  89.7888917  70.7140695  45.1805136
  89.2046711  84.1769721  33.1691028  90.1377384  84.1115283  33.3723903
  89.1169924  85.0125988  32.7105561  91.8334728  83.4935592  30.1294976
  91.7548359  83.1595455  31.0230733  92.6544394  83.9857360  30.1286448
  94.5312919  76.3597331  43.3371294  94.4989239  75.4213332  43.5230978
  95.1413542  76.4381368  42.6037119  86.3696250  75.2293384  29.3798498
  87.3155354  75.0999592  29.4486916  85.9910495  74.4908046  29.8567926
  94.6807407  73.1508374  43.3829577  94.1646456  72.3666831  43.1959506
  95.5647356  72.8227091  43.5476097  92.3418134  66.8949390  39.3425390
  92.1442955  66.5864478  40.2268722  92.9517840  67.6211029  39.4723320
 100.3489469  77.4213338  42.4777331 101.0792857  77.1598626  43.0385034
  99.7396414  76.6842060  42.5179399  98.4304766  75.5621200  43.0751782
  97.7037929  75.4277165  42.4668274  98.0152053  75.8698029  43.8808500
  86.2534942  79.2811130  50.8399155  87.1737952  79.4589729  51.0339202
  86.2184525  78.3367176  50.6878854  84.5539167  73.1543360  29.3153383
  83.6470622  72.8576473  29.3916097  84.8315148  72.8573178  28.4487670
  75.4717107  74.4749724  39.7652430  75.1519892  73.6215032  39.4726804
  74.9250535  74.6898302  40.5210397  79.2497015  77.1912165  43.4821936
  79.4683024  78.1229273  43.5009970  79.6622789  76.8320139  44.2676740
  86.1701233  67.6980250  35.4697625  85.3601961  67.3527335  35.8452871
  86.8585649  67.3887794  36.0585236  88.0991781  66.7758297  37.0921921
  88.6522819  67.1953750  37.7511944  88.3361867  65.8494045  37.1344877
  84.1224880  72.7645371  52.8724685  84.0221607  73.7139728  52.8036776
  83.9046422  72.4363609  52.0000755  83.3237951  70.0130296  29.4565363
  84.1857115  70.3385194  29.7161180  83.5088296  69.2261792  28.9438428
  75.3405367  78.0952635  41.7345551  74.6468839  77.6806588  41.2215506
  76.0878358  78.1373172  41.1378970  91.4770588  68.8858822  36.6000586
  90.8969257  69.5443626  36.2178638  91.2106521  68.0636167  36.1888003
  89.9274154  68.2863880  38.8021906  90.4273933  68.3980414  37.9936225
  90.5709762  67.9824933  39.4422714  83.9856150  76.1942509  51.6889747
  83.5023232  76.9942870  51.8953636  84.0717089  76.2050454  50.7357191
  77.2542110  78.0270889  39.6111566  77.2312798  78.1258576  38.6593449
  77.5642746  78.8736040  39.9328732  79.9129488  80.0847044  43.7258181
  80.8672741  80.0530986  43.6588112  79.7142011  79.6237668  44.5408407
  80.5028870  78.6548160  46.2928978  81.3221759  79.1492239  46.3163816
  80.7765677  77.7380128  46.2646546  90.2595466  71.0458912  35.6556934
  89.3721321  71.3308563  35.4377129  90.6749455  70.8852676  34.8084211
  93.6110002  71.0705433  39.3711273  94.3870392  71.5601886  39.6435890
  92.8858136  71.4963488  39.8283143  96.0482561  71.7833053  40.4285214
  96.6427051  71.5428789  39.7178522  96.1209144  71.0640183  41.0558750
  78.2679716  85.6266664  40.7428379  78.1334184  84.8667064  40.1766377
  77.8511779  86.3507563  40.2757167  89.4038679  80.8103587  29.7504954
  90.1074529  81.0153590  30.3662609  88.6801328  81.3780349  30.0154037
  90.2336490  76.5613448  35.8707224  90.1771691  77.0182000  35.0314856
  90.7864832  75.8004133  35.6930067  94.0441296  72.3503180  36.6957344
  93.7878230  71.9499816  37.5265551  93.4194164  73.0646974  36.5707483
  98.3553633  75.0899254  39.2028635  97.7953191  75.1592443  39.9760197
  97.7497137  74.9140238  38.4828131  81.4248842  86.5235981  40.9546821
  81.3081226  87.4681413  40.8525511  80.6041289  86.2209542  41.3432620
  91.3125377  81.2486116  31.8003414  92.1470981  80.8167315  31.6180889
  91.1509720  81.0768130  32.7280308  90.9671269  77.7518230  33.1659753
  90.9120073  77.5862501  32.2248197  90.3417324  78.4594263  33.3221943
  75.7563784  72.9886294  46.9921175  76.4022648  72.4785248  47.4808401
  75.5480935  73.7254976  47.5664601  88.2817176  80.0567142  52.4913316
  89.1508336  80.2307794  52.1299951  87.8023928  80.8761558  52.3689045
  84.2767394  67.2526339  32.7445072  84.2646064  68.1968179  32.9013342
  85.1690816  67.0696484  32.4504533  82.4503356  87.1764243  44.1702750
  83.3530603  87.2087853  44.4869245  82.2240726  86.2464693  44.1849085
  84.2056958  85.9295229  40.8312828  83.2552589  85.9297091  40.7177201
  84.5089445  85.1827964  40.3148863  88.0919514  63.8469115  36.9991008
  87.3251910  63.2927602  37.1447691  88.5030219  63.9190984  37.8605160
  80.0961275  70.1353911  51.0896190  80.9592736  69.7790716  51.2999514
  79.5226686  69.7967806  51.7771594  99.9409652  91.7655767  41.8958591
 100.5788062  91.6462515  41.1921931  99.8230495  92.7136611  41.9546543
  96.7499358  91.7183196  41.8320115  96.4117870  91.6024260  40.9440650
  97.6189126  91.3174361  41.8121121  92.6086174  93.5718672  37.8217006
  92.0451039  93.4808609  37.0533294  92.4938569  92.7518576  38.3019499
  97.2319141  92.8718047  47.7906321  97.2207782  92.4770846  46.9186825
  97.3939781  92.1384120  48.3840092  90.1550606  95.0669864  40.6601227
  90.9471898  94.7260688  40.2447526  90.3947256  95.1764839  41.5803380
  92.1141360  94.3278777  33.5318606  92.8872236  93.7807764  33.3931481
  92.4666759  95.1923026  33.7433067  93.9526402  95.6555159  46.7385505
  93.6616268  96.5600790  46.6232171  94.5883387  95.6971687  47.4529574
  94.8782609  93.0332008  43.3286864  95.4746181  92.8088030  42.6143827
  94.9357581  92.2916753  43.9312312  94.4507638  90.4871443  31.1637055
  94.7033158  89.9652964  30.4020518  93.5132197  90.3237588  31.2663739
  99.4950920  89.4907221  38.9711799 100.2814010  89.0726644  38.6202216
  99.7589625  90.3953313  39.1393447  99.6660998  94.9280072  33.6700455
  99.0306831  95.0014698  34.3821360  99.3358404  95.5173670  32.9919535
 104.8959347  89.4282455  39.8744777 105.6284519  88.8581671  40.1082607
 104.1398703  89.0404055  40.3151283  94.1703926  92.3899549  33.3661430
  94.0540184  91.7144452  34.0342515  94.2806186  91.9031923  32.5493583
  96.5135467  91.8509696  37.0708120  96.1493674  91.3240317  37.7821041
  97.3702583  91.4608165  36.8974605 102.4184768  83.1404029  44.3339386
 102.0868093  84.0099440  44.1100601 101.8230381  82.8240313  45.0133416
  96.1540954  86.8799596  32.0669468  96.3215357  87.7479832  32.4339939
  95.9638123  87.0426877  31.1430757  98.9116287  95.3416575  43.7335299
  98.6117010  96.2441613  43.6251106  98.5667347  95.0748758  44.5856451
  92.3628769  91.7930371  39.7672003  91.4379265  91.6606586  39.9749695
  92.6113182  92.5724591  40.2641945 102.3113431  87.8599115  41.4132736
 101.4030308  87.7914523  41.1191497 102.2601027  88.3371060  42.2414561
  96.1330175  89.3357253  33.0516135  96.0129800  89.7814304  33.8901615
  95.4382763  89.6842571  32.4929673  89.7237580  91.4363645  40.6015792
  89.8529961  91.6898124  41.5155204  89.0435031  92.0291353  40.2820447
  96.3854297  89.2788760  49.3567633  95.6087631  89.8382681  49.3470498
  97.0244860  89.7645543  49.8782503 104.1775078  86.0615553  43.1910610
 103.5349458  86.3548086  42.5450404 103.6730006  85.9468474  43.9963806
 101.8315241  89.8078726  33.8796469 102.7433097  90.0406113  33.7044167
 101.3224888  90.3915771  33.3171548  94.6400669  92.0874214  48.9185600
  95.3815354  92.6259258  48.6420424  93.9337655  92.7140502  49.0757152
 100.1156009  94.2303354  47.5157762 100.5239365  93.7885765  46.7712394
  99.3933270  93.6555982  47.7691955  96.4687079  89.1675961  44.8891319
  97.3148274  89.5915375  45.0325968  96.4085717  88.5109585  45.5829882
 100.4384824  94.7904545  41.2710050  99.8093686  94.9550259  40.5686118
 100.0510486  95.2046154  42.0421015  99.6186524  86.8280329  46.5472492
  99.3747456  87.5822390  46.0106768  99.8946455  87.2065677  47.3819739
 101.5724987  93.3718942  45.2249758 101.7841882  94.0150702  44.5484139
 101.5254735  92.5381258  44.7571688  99.1751216  85.9836762  42.1286330
  98.3135695  86.2818016  42.4203067  99.2013651  86.2007161  41.1967363
  95.9912785  94.5278953  38.5360136  96.4551131  94.8066656  37.7464758
  95.7269584  93.6262397  38.3533226  92.8836866  94.0750434  41.4739899
  93.4538224  94.5037703  40.8357383  93.4744978  93.7933019  42.1724085
  94.9281671  90.6502105  35.3449701  95.6305715  91.1023149  35.8123627
  94.5962300  90.0085924  35.9729594  93.3762033  89.2413862  49.7200910
  92.7460694  89.9230143  49.9536307  93.2698121  89.1296944  48.7754048
  88.6707005  88.9085658  40.6466834  87.8806059  89.1643186  40.1706945
  89.1618253  89.7233996  40.7518875  90.6221751  89.2730237  37.6050311
  89.8252914  89.3848931  38.1233807  90.3947343  89.6116889  36.7391202
  96.4527418  95.7974940  45.5532826  96.5171851  96.2595348  46.3890997
  95.7438342  95.1672305  45.6815135  86.9544708  89.1616148  43.0781825
  87.2052747  90.0463158  43.3439401  87.4904257  88.9820750  42.3056917
  96.1675436  97.4643048  35.4211806  96.0321111  98.3094584  35.8496654
  96.7085249  97.6662326  34.6577740  92.6542776  83.5434628  52.0826161
  92.2609721  82.9900826  52.7573805  93.4708916  83.8545206  52.4732679
  89.6204833  94.9818486  35.9939731  90.1329354  95.7761736  36.1445296
  90.2727546  94.2844776  35.9273332  91.4299718  98.0984242  38.0762484
  91.6066347  99.0202207  37.8883468  92.2256552  97.7842661  38.5056864
  95.5710737  84.9592507  49.6746418  96.3120450  85.5599660  49.5950880
  95.8028660  84.2170145  49.1164460  90.7152075  90.1448874  47.9524647
  90.6005590  89.2434131  48.2531746  89.8596592  90.3912571  47.6009464
  92.5531034  99.6162416  44.0772827  93.1038459  99.4879479  43.3049820
  91.7142510  99.9157305  43.7267719  96.3498205  95.8813544  48.4217058
  96.8826541  95.1201832  48.1916366  95.8212286  95.5887196  49.1641212
  99.5167900  80.9873610  43.9510699  99.1732169  81.8775251  43.8749810
  99.8846862  80.7975267  43.0880284  87.5853750  93.3107140  36.7699302
  88.4228972  93.7204149  36.5533009  87.7632018  92.3706582  36.7399495
  99.4818182  90.9782221  32.4583135  98.9664806  91.7486826  32.6971522
  99.2095491  90.3047357  33.0816196  97.0665293  85.8231922  37.5168373
  96.2106890  85.4338772  37.3374012  97.4792245  85.9023882  36.6568158
  98.5964440  83.3578265  41.9159933  98.0929236  83.3208400  41.1027738
  98.8895047  84.2671008  41.9756589  94.8407326  83.4416995  40.9226114
  95.7060323  83.2459803  40.5632004  94.9084835  83.2127346  41.8495471
  99.2704486  88.8509313  34.2842916  98.9654621  89.1655462  35.1353059
 100.2234928  88.9290733  34.3270249  97.7150917  95.0099536  35.9335870
  97.1872279  94.2752296  35.6209107  97.2138420  95.7874213  35.6875838
  92.4469645  85.6719203  38.2942481  93.0213397  85.4494384  37.5615674
  93.0340627  85.7407897  39.0471083 101.5049222  91.5592929  39.1006858
 102.0181104  92.1922921  39.6028567 102.1550446  90.9594125  38.7350218
  92.7739232  87.7023664  32.3138366  91.9376544  88.0398350  32.6347641
  92.6344002  87.5672643  31.3765503  94.7492313  82.5460451  37.0217551
  94.0956725  82.2309469  36.3974165  94.7072787  81.9236192  37.7477374
  95.8603518  92.8279747  28.9370843  94.9530579  92.5969000  29.1361992
  96.3574550  92.0317366  29.1244824  97.9830053  89.0342385  41.3465198
  97.0652614  89.2557332  41.1886886  98.3990197  89.1088696  40.4876906
  98.7665101  90.4333801  36.4767879  99.5136920  90.9455198  36.1675001
  99.0356690  90.1117853  37.3372272  97.0391751  92.9292341  33.4594833
  96.1302970  92.6451374  33.5567303  97.0686835  93.3491420  32.5998140
 101.2143938  87.4690917  38.4586668 100.4766695  86.9568303  38.7896910
 101.4670712  87.0291299  37.6469945 101.3155565  80.2467169  39.0528437
 101.6214442  79.3864532  38.7654352 102.0408170  80.8384789  38.8527431
  87.6079921  90.6497856  37.4410035  87.4104321  90.0567216  36.7161102
  87.0526585  90.3450066  38.1585974  95.5876645  90.5420962  39.5604628
  95.6425255  89.5894798  39.4847105  94.7767847  90.6980401  40.0445927
  93.5269005  89.1598022  37.3195007  92.7136871  89.4592192  37.7260199
  94.0227999  88.7653711  38.0369489  99.1243217  89.6239846  46.1509901
  99.4792604  89.8511319  47.0104367  99.7715348  89.9558223  45.5287156
  93.0183080  86.7316377  42.9356242  93.6582459  86.5905136  42.2379205
  92.1860610  86.4450891  42.5594844  93.7943384  96.0318808  39.0491234
  94.5883982  95.5369128  38.8473809  93.0835076  95.5036671  38.6858940
  90.1026147  90.1761889  35.1250987  89.1723735  90.1146345  35.3420949
  90.1983619  89.6537842  34.3287628  90.0211696  86.7016702  37.7129229
  90.2818513  87.6162036  37.6038389  90.8428868  86.2341145  37.8625842
  91.4936621  88.1154459  44.8828053  92.1659675  87.9071822  44.2340702
  90.6666408  87.9176545  44.4433286  97.3962193  84.7416400  46.8993714
  96.7490109  85.4406350  46.8058191  98.1663209  85.1752544  47.2669962
  97.5726328  92.5797165  44.9590534  98.5018388  92.7308325  44.7859501
  97.1517358  92.6681186  44.1039180  96.3714660  96.6047830  42.7289072
  96.2325745  96.2366614  43.6015010  95.5829256  97.1195469  42.5573029
  97.9219875  95.9829432  40.1177909  97.5869707  95.9430202  41.0135559
  97.4223820  95.3174148  39.6448320  91.8964119  91.3897062  45.6430490
  91.7583917  90.6577301  46.2442030  92.8069042  91.3005963  45.3614678
  94.5246419  91.1017022  45.1314170  95.2346038  90.4610214  45.0900789
  94.4815728  91.3529917  46.0540351  93.2375353  88.0882240  46.9509810
  92.7012710  87.6372978  47.6031406  92.6492062  88.2228148  46.2080274
  92.6477612  87.5470891  29.5136273  91.7707079  87.4259692  29.1498520
  93.1235365  86.7556969  29.2615162  84.1679752  92.3348051  39.6077780
  84.8550792  92.0209781  39.0198796  84.0127881  93.2389415  39.3345032
  88.9714475  87.2238247  44.0362804  88.8872663  86.6163917  43.3013214
  88.1497181  87.7147266  44.0372300  99.1438188  85.7091811  39.4032999
  99.6406888  84.9561773  39.0834069  98.3725170  85.7456128  38.8376208
 100.2267969  94.4663498  36.9771423  99.2924248  94.5864961  36.8076127
 100.4044638  93.5635965  36.7131432  95.7273157  87.8509194  39.1304684
  95.3570945  87.2980234  39.8185589  96.2232250  87.2467327  38.5779684
 103.6140521  90.3080817  37.5121457 104.0800973  91.1408809  37.4381759
 104.0648021  89.8425799  38.2166715  93.5562356  98.3106689  46.2259702
  94.2571815  98.9443172  46.3789096  93.0857471  98.6521420  45.4655341
 101.5857183  82.6761404  41.5512358 100.6720263  82.9065631  41.7194565
 102.0150285  82.7599848  42.4026390 101.3563642  90.8651296  44.0512252
 100.7035092  91.1127204  43.3964705 101.7344022  90.0515435  43.7174729
  97.4051215  91.6071107  50.5378289  96.7291852  91.5065237  51.2080664
  98.2278849  91.4510321  51.0014286  89.1530074  97.8443044  43.1590804
  89.7383511  97.0986732  43.2918709  88.9554912  98.1547001  44.0427468
  92.0068729 100.8794291  38.1753247  91.3379104 101.3640419  37.6917287
  91.8681599 101.1263512  39.0896625  83.7447729  90.4148644  41.8795248
  83.7831828  89.8812235  42.6732366  83.2388021  89.8883850  41.2606225
  91.1238491  85.2613185  45.3757790  91.1879817  86.1228016  44.9635188
  91.0605611  84.6487186  44.6430148  90.5990763  87.3336317  49.0230824
  91.2262802  86.9513395  49.6368348  89.7418682  87.1150519  49.3886517
  87.3756306  89.1412746  34.9549179  87.6709747  88.2323425  34.9016233
  86.4744342  89.1200486  34.6330181  90.9050553  87.2168743  40.9376728
  90.1837139  87.8304711  40.7984201  91.6943809  87.7526508  40.8593373
  93.7076867  84.5523169  47.2117379  94.2311269  84.7985466  47.9743689
  93.4889200  85.3843204  46.7920517  89.1044148  86.8226844  35.0788504
  88.7756854  85.9424223  34.8963610  89.4583518  86.7674513  35.9664893
  92.2185971  87.1099814  35.4463982  92.5582043  87.6385735  34.7242590
  92.6658091  87.4480220  36.2222548  94.9129412  85.4936864  44.8967050
  94.5726232  84.6944678  45.2987730  94.2068418  85.7938575  44.3243883
  95.5645884  82.5786177  43.3494373  96.3871953  82.1046655  43.2273263
  95.8083947  83.3576661  43.8493059  94.2054118  85.6074435  33.6457275
  94.9262481  85.9855688  33.1420991  93.5819422  86.3263312  33.7492252
  98.3485241  86.3119584  34.5815607  98.5648855  87.1944222  34.2804435
  97.8679308  85.9205798  33.8521249  93.0884462  89.2705298  41.1586351
  92.9429043  89.5845601  42.0510633  92.6109666  89.8890198  40.6057250
  94.9480845  86.2607846  41.2067241  94.9342414  85.3648939  40.8699539
  95.6653273  86.2678509  41.8405527  96.8006976  86.6945186  43.2520368
  96.5424754  87.6162256  43.2504699  96.2692016  86.2975620  43.9420833
  87.5630124  91.8110642  44.0974013  87.0183593  92.5870450  44.2294287
  88.4409474  92.1581446  43.9393134  94.3517741  85.1422226  36.4754811
  94.4733652  84.2138872  36.6745699  94.0619784  85.1560912  35.5633127
  97.2208932  82.8277136  39.6121531  97.2430628  82.8916469  38.6573511
  97.6376991  81.9881645  39.8062037  88.3496146  90.9380538  46.9904169
  87.6077882  91.0863174  47.5768800  88.0288891  91.1988804  46.1270919
  88.7952760  98.8245967  39.0214564  89.6210780  98.5249739  38.6413208
  88.4446812  98.0553589  39.4704353  93.7634293  98.1772435  41.0912238
  93.1414302  97.5143140  40.7914466  94.4339160  98.2033567  40.4085885
  86.9961365  96.7432293  39.9803498  86.1593273  96.3154468  39.7987499
  86.9685010  96.9364737  40.9174289  93.8358821  86.6554223  50.6844744
  93.8846976  87.5316346  50.3022513  94.3781335  86.1131616  50.1116387
  93.3247800  96.7276359  34.5670698  93.4735920  97.4111823  33.9137371
  94.1314244  96.7081449  35.0820154 101.7315304  90.0318741  48.5937916
 102.6325167  89.8925206  48.3021914 101.8063278  90.1973196  49.5336093
  96.0658109  87.4085596  47.4391102  95.1961419  87.7019162  47.1673691
  96.3017589  87.9926041  48.1598366 104.1916926  91.5917369  45.9900689
 104.6671048  91.7845015  45.1819540 103.2682492  91.6476555  45.7444073
  91.0800433  92.7541536  35.5731767  90.8346475  91.8503866  35.7711977
  91.2496348  92.7558687  34.6311245  98.7697143  83.6265213  44.9556523
  99.2879087  84.3626239  44.6303011  98.4152276  83.9329206  45.7903282
  90.3496081  88.4869894  33.0717929  89.6565326  88.5614249  32.4157965
  90.1047833  87.7230237  33.5939446  99.0209737  80.0465495  40.4757419
  99.3011491  79.3788684  41.1017846  99.8060344  80.2394591  39.9632083
 102.8918595  88.4683129  44.2228994 103.8436018  88.5681227  44.2441219
 102.7222046  87.6761398  44.7327079 100.9132975  85.5538712  44.4088395
 100.3182907  85.8343725  43.7134884 100.6282672  86.0432613  45.1805136
 105.3706673  91.6889249  43.3371294 105.3382993  90.7505249  43.5230978
 105.9807297  91.7673285  42.6037119  97.2090004  90.5585302  29.3798498
  98.1549109  90.4291510  29.4486916  96.8304249  89.8199964  29.8567926
 105.5201162  88.4800292  43.3829577 105.0040210  87.6958749  43.1959506
 106.4041110  88.1519009  43.5476097 103.1811889  82.2241308  39.3425390
 102.9836710  81.9156396  40.2268722 103.7911594  82.9502947  39.4723320
  97.0928697  94.6103048  50.8399155  98.0131706  94.7881647  51.0339202
  97.0578280  93.6659093  50.6878854  95.3932921  88.4835278  29.3153383
  94.4864377  88.1868391  29.3916097  95.6708902  88.1865096  28.4487670
  86.3110862  89.8041641  39.7652430  85.9913646  88.9506950  39.4726804
  85.7644290  90.0190220  40.5210397  90.0890769  92.5204082  43.4821936
  90.3076779  93.4521190  43.5009970  90.5016543  92.1612057  44.2676740
  97.0094987  83.0272168  35.4697625  96.1995715  82.6819253  35.8452871
  97.6979404  82.7179712  36.0585236  98.9385535  82.1050215  37.0921921
  99.4916574  82.5245668  37.7511944  99.1755622  81.1785963  37.1344877
  94.9618635  88.0937288  52.8724685  94.8615361  89.0431645  52.8036776
  94.7440177  87.7655527  52.0000755  94.1631706  85.3422213  29.4565363
  95.0250870  85.6677112  29.7161180  94.3482050  84.5553709  28.9438428
  86.1799122  93.4244553  41.7345551  85.4862593  93.0098506  41.2215506
  86.9272113  93.4665089  41.1378970 102.3164342  84.2150740  36.6000586
 101.7363011  84.8735544  36.2178638 102.0500275  83.3928084  36.1888003
 100.7667909  83.6155797  38.8021906 101.2667687  83.7272332  37.9936225
 101.4103517  83.3116850  39.4422714  94.8249905  91.5234427  51.6889747
  94.3416986  92.3234787  51.8953636  94.9110844  91.5342372  50.7357191
  88.0935864  93.3562807  39.6111566  88.0706552  93.4550494  38.6593449
  88.4036501  94.2027958  39.9328732  90.7523242  95.4138962  43.7258181
  91.7066496  95.3822904  43.6588112  90.5535766  94.9529586  44.5408407
  91.3422624  93.9840078  46.2928978  92.1615513  94.4784157  46.3163816
  91.6159432  93.0672046  46.2646546 101.0989220  86.3750830  35.6556934
 100.2115075  86.6600481  35.4377129 101.5143209  86.2144594  34.8084211
 104.4503757  86.3997351  39.3711273 105.2264147  86.8893804  39.6435890
 103.7251891  86.8255405  39.8283143  89.1073471 100.9558581  40.7428379
  88.9727939 100.1958982  40.1766377  88.6905533 101.6799481  40.2757167
 101.0730244  91.8905366  35.8707224 101.0165446  92.3473918  35.0314856
 101.6258587  91.1296051  35.6930067 104.8835050  87.6795098  36.6957344
 104.6271984  87.2791734  37.5265551 104.2587918  88.3938892  36.5707483
 101.8065023  93.0810147  33.1659753 101.7513827  92.9154419  32.2248197
 101.1811079  93.7886180  33.3221943  86.5957538  88.3178212  46.9921175
  87.2416402  87.8077166  47.4808401  86.3874690  89.0546893  47.5664601
  99.1210931  95.3859059  52.4913316  99.9902090  95.5599711  52.1299951
  98.6417682  96.2053476  52.3689045  95.1161149  82.5818256  32.7445072
  95.1039819  83.5260096  32.9013342  96.0084571  82.3988402  32.4504533
  98.9313268  79.1761033  36.9991008  98.1645664  78.6219520  37.1447691
  99.3423973  79.2482902  37.8605160  90.9355029  85.4645829  51.0896190
  91.7986491  85.1082634  51.2999514  90.3620440  85.1259724  51.7771594
  39.7557631  -3.9842307  33.4630811  39.4647497  -3.0796676  33.3477478
  40.3914615  -3.9425779  34.1774881  40.6813838  -6.6065458  30.0532171
  41.2777410  -6.8309436  29.3389134  40.7388809  -7.3480713  30.6557619
  44.7147516  -4.2980891  30.4580605  44.4148239  -3.3955852  30.3496412
  44.3698576  -4.5648708  31.3101758  46.2416052  -4.8492921  27.9955357
  45.6124915  -4.6847207  27.2931425  45.8541714  -4.4351311  28.7666321
  50.1205284  -3.9138483  25.3499721  49.4356322  -3.5339582  24.7996754
  50.2049134  -3.3043156  26.0831669  48.4902044  -3.3906569  30.1217422
  49.3119488  -3.7926381  29.8400103  48.4864447  -3.4938335  31.0733538
  42.2558647  -3.8422525  32.2778132  42.3203080  -3.3802118  33.1136304
  41.5469571  -4.4725160  32.4060442  43.5975141  -1.5530851  36.2757455
  43.1538995  -2.3394473  35.9578359  44.2592355  -1.3651701  35.6101345
  38.3562262  -0.0235050  30.8018133  38.9069688  -0.1517986  30.0295127
  37.5173738   0.2759839  30.4513026  45.6956379  -1.2728051  34.3038856
  45.6774855  -0.4519170  33.8119125  46.6176299  -1.3973976  34.5288997
  42.1529433  -3.7583922  35.1462364  42.6857770  -4.5195634  34.9161672
  41.6243515  -4.0510270  35.8886519  46.5175186  -1.2622038  24.8881125
  46.8098161  -0.7016981  24.1693491  47.0273807  -0.9693477  25.6434284
  41.4808812  -0.4841687  25.9774578  41.4384990  -0.2580841  25.0483110
  42.3971511  -0.7178312  26.1260380  44.4169457  -1.2260563  30.1248909
  44.4706479  -0.6569626  30.8926625  43.5484238  -1.0558677  29.7602946
  46.6072220  -4.6332213  36.6989574  46.4557727  -4.8621662  35.7819658
  46.5976900  -3.6761612  36.7120919  42.1745888  -3.0349636  29.4534378
  42.0356974  -3.4030852  30.3260316  41.3860485  -2.5201997  29.2818336
  43.7251104  -3.6568033  26.8423216  43.3900936  -3.6967263  27.7380866
  43.2255049  -4.3223317  26.3693626  48.3164427  -1.6013091  34.7766056
  48.2576973  -2.2853871  34.1096639  48.7183945  -0.8594101  34.3246682
  37.3355126   5.2148823  27.5699775  37.5751724   5.8467347  28.2478793
  36.4924322   4.8636863  27.8565134  48.3181834  -3.6373507  33.0080036
  47.4308613  -3.9747585  33.1306435  48.8880385  -4.3690476  33.2448801
  41.8482988   1.0227946  29.9741279  41.7753159   1.8282917  30.4860583
  41.4060381   1.2219911  29.1489300  44.3081671   0.9214780  32.1299438
  45.0209643   1.5562244  32.0575339  43.8171700   1.0178646  31.3139439
  39.3593585  -1.3290777  32.9505008  40.0603044  -0.6954294  33.1034403
  38.8888700  -0.9876045  32.1900648  44.1202044   1.2613524  24.8785729
  44.3024439   0.4435180  25.3413481  44.9435030   1.4781216  24.4410619
  34.9561303  -1.7954422  29.8836111  35.5414739  -2.5410734  30.0164015
  34.7586141  -1.4850465  30.7672775  41.9505226   3.2740569  31.4981212
  42.5023535   3.4372191  32.2630297  42.2911420   3.8645007  30.8261237
  46.8016101  -1.8998173  37.3529866  47.3456005  -1.2868215  36.8584821
  46.2202946  -1.3418595  37.8696879  45.0873614   1.2222545  28.4844894
  44.9624753   0.4212284  27.9755839  45.7452705   1.7168738  27.9958864
  47.1508522  -0.9768435  30.1124444  46.2038858  -1.0963084  30.0402771
  47.4991295  -1.8645937  30.1950705  44.1554955  -1.1815719  26.3128796
  44.0079918  -2.1099012  26.4936366  44.9808449  -1.1595628  25.8285871
  47.7589077  -0.3587160  27.3993669  48.6835625  -0.5644299  27.2618120
  47.5904381  -0.6070759  28.3083010  42.0971038   0.8399051  33.5129866
  42.4058164   0.5948197  34.3852566  42.8946520   1.0445689  33.0248736
  42.1191650   2.9936960  25.7435243  41.6796640   2.5013339  26.4368099
  42.8699767   2.4509928  25.5027318  39.5665522  -1.4625031  27.8157544
  38.9445531  -2.1254326  27.5159772  40.2370389  -1.4363899  27.1331192
  50.1244895  -2.4402119  36.6891187  49.3340439  -2.4577981  36.1495687
  49.8878250  -1.9013826  37.4440224  42.8959925  -5.0294418  37.5644462
  43.8162935  -4.8515819  37.7584508  42.8609509  -5.9738373  37.4124161
  36.5554471  -4.2258504  30.4503487  37.5097724  -4.2574562  30.3833419
  36.3566994  -4.6867880  31.2653713  37.1453853  -5.6557388  33.0174285
  37.9646742  -5.1613309  33.0409122  37.4190661  -6.5725420  32.9891852
  38.0673826   2.2130433  27.6792128  37.9506210   3.1575865  27.5770818
  37.2466272   1.9103994  28.0677927  44.9242159  -4.2538407  39.2158623
  45.7933319  -4.0797754  38.8545258  44.4448911  -3.4343990  39.0934352
  39.0928340   2.8658694  30.8948056  39.9955586   2.8982305  31.2114551
  38.8665710   1.9359145  30.9094392  40.8481942   1.6189681  27.5558135
  39.8977573   1.6191543  27.4422507  41.1514428   0.8722416  27.0394169
  56.5834635   7.4550219  28.6203897  57.2213045   7.3356967  27.9167237
  56.4655478   8.4031063  28.6791849  53.3924341   7.4077647  28.5565422
  53.0542853   7.2918712  27.6685957  54.2614110   7.0068813  28.5366428
  49.2511157   9.2613124  24.5462313  48.6876022   9.1703061  23.7778601
  49.1363552   8.4413028  25.0264805  53.8744124   8.5612499  34.5151627
  53.8632765   8.1665297  33.6432131  54.0364764   7.8278572  35.1085399
  46.7975589  10.7564315  27.3846533  47.5896881  10.4155140  26.9692833
  47.0372239  10.8659291  28.3048687  54.8310716  12.9284092  19.8576778
  54.1798696  13.5138172  19.4710792  55.6255079  13.4590286  19.9171815
  48.7566343  10.0173229  20.2563912  49.5297219   9.4702216  20.1176788
  49.1091742  10.8817478  20.4678374  50.5951386  11.3449611  33.4630811
  50.3041252  12.2495242  33.3477478  51.2308370  11.3866139  34.1774881
  51.5207592   8.7226459  30.0532171  52.1171165   8.4982482  29.3389134
  51.5782564   7.9811205  30.6557619  56.1375904   5.1801673  25.6957105
  56.9238993   4.7621096  25.3447522  56.4014608   6.0847765  25.8638754
  56.3085981  10.6174523  20.3945762  55.6731814  10.6909150  21.1066667
  55.9783387  11.2068122  19.7164841  50.8128910   8.0794001  20.0906737
  50.6965168   7.4038904  20.7587821  50.9231169   7.5926375  19.2738890
  53.1560451   7.5404148  23.7953426  52.7918658   7.0134769  24.5066348
  54.0127566   7.1502617  23.6219912  55.5541271  11.0311026  30.4580605
  55.2541994  11.9336065  30.3496412  55.2092330  10.7643210  31.3101758
  49.0053752   7.4824823  26.4917310  48.0804249   7.3501037  26.6995001
  49.2538165   8.2619043  26.9887252  58.9538414   3.5493567  28.1378042
  58.0455292   3.4808975  27.8436803  58.9026010   4.0265512  28.9659868
  52.7755158   5.0251705  19.7761442  52.6554784   5.4708756  20.6146922
  52.0807747   5.3737023  19.2174980  46.3662563   7.1258097  27.3261099
  46.4954944   7.3792576  28.2400510  45.6860014   7.7185805  27.0065754
  50.5362050  17.7955347  23.4251573  50.4586080  18.7463172  23.5040053
  49.9323694  17.4501219  24.0826499  53.0279280   4.9683212  36.0812940
  52.2512614   5.5277132  36.0715804  53.6669843   5.4539995  36.6027810
  60.8200061   1.7510005  29.9155916  60.1774441   2.0442538  29.2695711
  60.3154989   1.6362925  30.7209113  58.4740225   5.4973178  20.6041776
  59.3858081   5.7300565  20.4289473  57.9649872   6.0810222  20.0416854
  51.2825653   7.7768666  35.6430907  52.0240337   8.3153710  35.3665730
  50.5762638   8.4034954  35.8002459  56.7580992   9.9197806  34.2403068
  57.1664348   9.4780217  33.4957701  56.0358254   9.3450434  34.4937261
  53.1112062   4.8570413  31.6136625  53.9573257   5.2809826  31.7571274
  53.0510700   4.2004037  32.3075188  57.0809807  10.4798997  27.9955357
  56.4518669  10.6444711  27.2931425  56.6935469  10.8940606  28.7666321
  60.9599039  11.4153435  25.3499721  60.2750077  11.7952336  24.7996754
  61.0442888  12.0248761  26.0831669  56.2611508   2.5174781  33.2717799
  56.0172439   3.2716842  32.7352075  56.5371438   2.8960129  34.1065046
  58.2149970   9.0613394  31.9495064  58.4266866   9.7045153  31.2729445
  58.1679719   8.2275710  31.4816994  55.8176199   1.6731214  28.8531637
  54.9560678   1.9712468  29.1448374  55.8438634   1.8901613  27.9212669
  52.6337769  10.2173405  25.2605442  53.0976114  10.4961108  24.4710065
  52.3694567   9.3156849  25.0778533  49.5261850   9.7644886  28.1985205
  50.0963207  10.1932155  27.5602690  50.1169962   9.4827471  28.8969391
  51.5706655   6.3396557  22.0695007  52.2730698   6.7917601  22.5368934
  51.2387283   5.6980376  22.6974900  50.0187016   4.9308314  36.4446217
  49.3885677   5.6124595  36.6781614  49.9123104   4.8191395  35.4999355
  45.3131989   4.5980110  27.3712141  44.5231043   4.8537638  26.8952252
  45.8043236   5.4128448  27.4764181  59.3295798  11.9385349  30.1217422
  60.1513242  11.5365536  29.8400103  59.3258201  11.8353583  31.0733538
  47.2646734   4.9624689  24.3295618  46.4677897   5.0743383  24.8479113
  47.0372326   5.3011341  23.4636508  53.0952402  11.4869392  32.2778132
  53.1596834  11.9489800  33.1136304  52.3863326  10.8566757  32.4060442
  43.5969692   4.8510600  29.8027132  43.8477730   5.7357610  30.0684708
  44.1329240   4.6715202  29.0302224  67.4201791   8.2824097  26.4702393
  66.6665500   7.7131496  26.3146398  67.5549333   8.2486762  27.4173028
  52.8100419  13.1537500  22.1457113  52.6746094  13.9989036  22.5741960
  53.3510232  13.3556777  21.3823046  49.2967759  -0.7670920  38.8071468
  48.9034705  -1.3204722  39.4819112  50.1133899  -0.4560342  39.1977985
  46.2629817  10.6712938  22.7185038  46.7754337  11.4656188  22.8690602
  46.9152530   9.9739228  22.6518639  48.0724701  13.7878694  24.8007791
  48.2491330  14.7096659  24.6128775  48.8681535  13.4737113  25.2302171
  52.2135720   0.6486959  36.3991724  52.9545433   1.2494112  36.3196187
  52.4453643  -0.0935403  35.8409767  47.3577058   5.8343326  34.6769954
  47.2430573   4.9328583  34.9777053  46.5021576   6.0807023  34.3254771
  54.4368896  13.7761066  36.2757455  53.9932750  12.9897445  35.9578359
  55.0986109  13.9640217  35.6101345  49.1956017  15.3056868  30.8018133
  49.7463442  15.1773931  30.0295127  48.3567493  15.6051757  30.4513026
  56.5350134  14.0563866  34.3038856  56.5168609  14.8772747  33.8119125
  57.4570054  13.9317941  34.5288997  52.9923188  11.5707996  35.1462364
  53.5251525  10.8096284  34.9161672  52.4637269  11.2781648  35.8886519
  44.2278734   9.0001592  23.4944608  45.0653956   9.4098600  23.2778316
  44.4057001   8.0601034  23.4644802  56.1243166   6.6676673  19.1828441
  55.6089789   7.4381277  19.4216829  55.8520474   5.9941809  19.8061503
  53.7090277   1.5126374  24.2413680  52.8531873   1.1233224  24.0619318
  54.1217228   1.5918334  23.3813465  55.2389423  -0.9527283  28.6405239
  54.7354219  -0.9897148  27.8273045  55.5320030  -0.0434540  28.7001896
  51.4832309  -0.8688553  27.6471421  52.3485306  -1.0645745  27.2877310
  51.5509818  -1.0978202  28.5740778  61.0977440   9.4209027  21.1181615
  60.3206883   9.0820187  20.6736777  61.7768921   9.4261651  20.4436580
  55.9129469   4.5403765  21.0088222  55.6079604   4.8549914  21.8598366
  56.8659911   4.6185185  21.0515555  54.3575901  10.6993988  22.6581176
  53.8297262   9.9646748  22.3454414  53.8563403  11.4768665  22.4121145
  59.3368747   8.8943009  27.7748223  58.6792421   9.5842270  27.8628351
  60.1409146   9.2839441  28.1182209  49.0894628   1.3613654  25.0187788
  49.6638380   1.1388836  24.2860981  49.6765611   1.4302349  25.7716389
  58.1474206   7.2487381  25.8252164  58.6606087   7.8817373  26.3273874
  58.7975429   6.6488577  25.4595524  51.3917296  -1.7645097  23.7462857
  50.7381708  -2.0796079  23.1219472  51.3497770  -2.3869356  24.4722680
  52.5028501   8.5174198  15.6616149  51.5955563   8.2863452  15.8607298
  52.9999533   7.7211818  15.8490131  55.4096580  17.2271706  18.5812836
  54.7358279  17.5303402  19.1897793  55.7962402  18.0300786  18.2318293
  54.6255036   4.7236837  28.0710505  53.7077598   4.9451784  27.9132193
  55.0415180   4.7983147  27.2122212  55.4090084   6.1228253  23.2013185
  56.1561903   6.6349650  22.8920307  55.6781674   5.8012305  24.0617579
  53.6816734   8.6186793  20.1840139  52.7727954   8.3345826  20.2812609
  53.7111818   9.0385872  19.3243446  58.9136002  12.2293383  23.9531307
  58.4598329  11.3884293  24.0096497  58.2829968  12.8654781  24.2906087
  57.8568921   3.1585369  25.1831974  57.1191678   2.6462755  25.5142217
  58.1095695   2.7185750  24.3715251  57.3568941  14.0669880  24.8881125
  57.6491915  14.6274937  24.1693491  57.8667562  14.3598441  25.6434284
  44.2504905   6.3392307  24.1655342  44.0529305   5.7461668  23.4406408
  43.6951569   6.0344518  24.8831280  52.2301628   6.2315414  26.2849935
  52.2850238   5.2789250  26.2092411  51.4192830   6.3874853  26.7691233
  53.3792822  10.1595537  17.5228218  52.9412252   9.4431396  17.0633855
  54.1203263  10.3871652  16.9613309  50.1693988   4.8492474  24.0440314
  49.3561854   5.1486644  24.4505506  50.6652982   4.4548162  24.7614796
  52.3202566  14.8450231  25.9774578  52.2778745  15.0711077  25.0483110
  53.2365265  14.6113605  26.1260380  55.7668200   5.3134298  32.8755208
  56.1217588   5.5405771  33.7349673  56.4140331   5.6452675  32.2532463
  61.4965937   8.4352734  23.5804537  61.3583835   8.6254330  22.6525726
  61.1402156   9.1972117  24.0372588  49.6608063   2.4210829  29.6601549
  50.3007442   2.2799588  28.9624512  48.8285594   2.1345343  29.2840151
  61.5235316  10.5029261  28.5915808  61.9571823  10.4104550  29.4398862
  62.2366897  10.4786762  27.9535824  50.4368367  11.7213260  25.7736541
  51.2308965  11.2263580  25.5719116  49.7260059  11.1931123  25.4104247
  55.2563211  14.1031355  30.1248909  55.3100234  14.6722291  30.8926625
  54.3877993  14.2733240  29.7602946  46.7451130   5.8656341  21.8496294
  45.8148718   5.8040797  22.0666256  46.8408602   5.3432294  21.0532935
  46.6636679   2.3911154  24.4374535  46.9243497   3.3056487  24.3283696
  47.4853852   1.9235597  24.5871148  48.1361605   3.8048911  31.6073360
  48.8084658   3.5966273  30.9586009  47.3091391   3.6070997  31.1678592
  62.3850866  10.5452962  31.1248693  62.5786756  11.4498772  31.3707968
  62.2851484  10.0860381  31.9587279  54.0387177   0.4310852  33.6239021
  53.3915092   1.1300802  33.5303497  54.8088192   0.8646996  33.9915269
  57.4465975  10.6959704  36.6989574  57.2951481  10.4670256  35.7819658
  57.4370654  11.6530306  36.7120919  54.2151311   8.2691617  31.6835841
  55.1443371   8.4202777  31.5104808  53.7942341   8.3575638  30.8284487
  53.0139643  12.2942282  29.4534378  52.8750729  11.9261066  30.3260316
  52.2254239  12.8089921  29.2818336  53.6087795  17.3951378  20.7959915
  53.7839551  16.9239421  21.6105537  52.9220583  18.0217144  21.0241175
  54.5644858  11.6723884  26.8423216  54.2294691  11.6324654  27.7380866
  54.0648804  11.0068600  26.3693626  48.5389102   7.0791514  32.3675797
  48.4008900   6.3471753  32.9687336  49.4494026   6.9900414  32.0859985
  57.5004050   9.0179919  17.1160276  56.8833220   8.2926747  17.0193328
  57.0320538   9.7789279  16.7727350  51.1671403   6.7911474  31.8559477
  51.8771021   6.1504666  31.8146095  51.1240711   7.0424369  32.7785658
  59.1558181  13.7278827  34.7766056  59.0970728  13.0438047  34.1096639
  59.5577700  14.4697817  34.3246682  49.8800337   3.7776692  33.6755116
  49.3437694   3.3267430  34.3276713  49.2917045   3.9122600  32.9325581
  48.1748880  20.5440741  27.5699775  48.4145478  21.1759265  28.2478793
  47.3318077  20.1928781  27.8565134  59.1575589  11.6918411  33.0080036
  58.2702367  11.3544333  33.1306435  59.7274140  10.9601442  33.2448801
  40.8104736   8.0242503  26.3323087  41.4975776   7.7104233  25.7444102
  40.6552864   8.9283867  26.0590338  45.6139458   2.9132699  30.7608111
  45.5297647   2.3058369  30.0258521  44.7922164   3.4041718  30.7617607
  52.6876742  16.3519863  29.9741279  52.6146914  17.1574835  30.4860583
  52.2454135  16.5511829  29.1489300  52.4766522  15.5891633  23.4844100
  51.6934044  16.1313313  23.5782325  53.1759267  16.1065613  23.8838342
  55.7863172   1.3986263  26.1278306  56.2831871   0.6456225  25.8079376
  55.0150153   1.4350579  25.5621515  63.6392929   7.1026628  27.7696597
  63.6282805   7.9851344  27.3990530  62.7710309   6.7498179  27.5751134
  55.1475426  16.2506697  32.1299438  55.8603398  16.8854162  32.0575339
  54.6565454  16.3470563  31.3139439  56.8692952  10.1557950  23.7016729
  55.9349231  10.2759412  23.5321433  57.0469621   9.2530417  23.4376739
  52.3698141   3.5403646  25.8549990  51.9995928   2.9874686  26.5430896
  52.8657233   2.9361779  25.3024990  60.2565504   5.9975269  24.2366763
  60.7225956   6.8303261  24.1627066  60.7073004   5.5320251  24.9412022
  50.1987339  14.0001141  32.9505008  50.8996799  14.6337624  33.1034403
  49.7282454  14.3415872  32.1900648  58.3241735  12.3419091  21.2352915
  58.6001579  12.2275685  22.1446789  57.4546234  11.9436575  21.1965088
  57.9988625   6.5545748  30.7757559  57.3460075   6.8021656  30.1210011
  58.3769005   5.7409886  30.4420036  54.9595799  16.5905441  24.8785729
  55.1418193  15.7727097  25.3413481  55.7828785  16.8073134  24.4410619
  55.2937964  15.5173627  22.1400777  55.8225731  15.0066081  21.5270940
  55.5566184  15.2016157  23.0046310  54.0476198   7.2965559  37.2623596
  53.3716835   7.1959689  37.9325971  54.8703832   7.1404773  37.7259593
  45.7955057  13.5337496  29.8836111  46.3808494  12.7881184  30.0164015
  45.5979896  13.8441453  30.7672775  48.6493712  16.5688743  24.8998553
  47.9804088  17.0534871  24.4162593  48.5106582  16.8157964  25.8141932
  40.3872712   6.1043096  28.6040554  40.4256811   5.5706687  29.3977672
  39.8813005   5.5778302  27.9851531  52.7898981  18.6032487  31.4981212
  53.3417289  18.7664108  32.2630297  53.1305174  19.1936925  30.8261237
  47.7663474   0.9507637  32.1003096  47.8304801   1.8122467  31.6880494
  47.7030594   0.3381638  31.3675455  47.2415747   3.0230769  35.7476131
  47.8687786   2.6407846  36.3613655  46.3843666   2.8044971  36.1131823
  57.6409855  13.4293744  37.3529866  58.1849759  14.0423703  36.8584821
  57.0596700  13.9873323  37.8696879  44.0181289   4.8307198  21.6794486
  44.3134731   3.9217877  21.6261539  43.1169325   4.8094938  21.3575488
  55.9267368  16.5514462  28.4844894  55.8018508  15.7504202  27.9755839
  56.5846459  17.0460656  27.9958864  47.5475536   2.9063195  27.6622034
  46.8262122   3.5199162  27.5229507  48.3368792   3.4420960  27.5838680
  57.9902277  14.3523482  30.1124444  57.0432612  14.2328834  30.0402771
  58.3385050  13.4645980  30.1950705  50.3501850   0.2417621  33.9362686
  50.8736252   0.4879918  34.6988995  50.1314183   1.0737656  33.5165823
  54.9948710  14.1476199  26.3128796  54.8473672  13.2192906  26.4936366
  55.8202203  14.1696289  25.8285871  48.8610954   2.7994266  22.1709288
  49.2007027   3.3280187  21.4487897  49.3083075   3.1374672  22.9467855
  58.5982832  14.9704757  27.3993669  59.5229379  14.7647619  27.2618120
  58.4298135  14.7221158  28.3083010  51.5554395   1.1831316  31.6212356
  51.2151215   0.3839129  32.0233036  50.8493401   1.4833027  31.0489190
  52.2070867  -1.7319371  30.0739679  53.0296936  -2.2058893  29.9518570
  52.4508930  -0.9528887  30.5738366  50.8479101   1.2968887  20.3702581
  51.5687464   1.6750140  19.8666298  50.2244405   2.0157764  20.4737559
  54.9910224   2.0014036  21.3060913  55.2073839   2.8838674  21.0049742
  54.5104291   1.6100250  20.5766555  49.7309446   4.9599749  27.8831658
  49.5854026   5.2740052  28.7755940  49.2534649   5.5784650  27.3302557
  51.5905829   1.9502297  27.9312548  51.5767397   1.0543391  27.5944846
  52.3078257   1.9572961  28.5650834  53.4431959   2.3839638  29.9765675
  53.1849737   3.3056708  29.9750005  52.9117000   1.9870072  30.6666139
  58.3878148  15.4890425  22.7555760  58.5615026  14.9236847  22.0029613
  58.8807039  16.2891320  22.5735250  44.2055108   7.5005094  30.8219319
  43.6608576   8.2764902  30.9539594  45.0834458   7.8475898  30.6638441
  50.9942724   0.8316678  23.2000118  51.1158636  -0.0966676  23.3991005
  50.7044767   0.8455364  22.2878433  53.8633915  -1.4828412  26.3366838
  53.8855612  -1.4189079  25.3818817  54.2801974  -2.3223903  26.5307344
  64.2417539   8.2526848  24.3746060  64.6848685   7.5034173  23.9765183
  63.3644049   8.2436984  23.9919792  59.3753320  14.8057189  19.8552659
  60.0704225  15.4263882  20.0739973  59.7176471  13.9552540  20.1305037
  44.9921130   6.6274990  33.7149476  44.2502866   6.7757625  34.3014107
  44.6713874   6.8883256  32.8516226  61.2744744  12.2556895  21.3839989
  61.7996068  12.5944167  20.6589310  61.1867096  11.3203910  21.2003124
  52.9364792  16.1690968  33.5129866  53.2451919  15.9240115  34.3852566
  53.7340274  16.3737607  33.0248736  52.9585404  18.3228878  25.7435243
  52.5190395  17.8305257  26.4368099  53.7093521  17.7801846  25.5027318
  45.4377743  14.5140419  25.7459871  46.2635763  14.2144191  25.3658514
  45.0871795  13.7448041  26.1949659  50.4059276  13.8666887  27.8157544
  49.7839286  13.2037592  27.5159772  51.0764143  13.8928019  27.1331192
  43.6386348  12.4326745  26.7048804  42.8018257  12.0048920  26.5232806
  43.6109994  12.6259189  27.6419596  50.4783804   2.3448675  37.4090050
  50.5271959   3.2210798  37.0267820  51.0206318   1.8026068  36.8361694
  60.9638650  12.8889798  36.6891187  60.1734193  12.8713937  36.1495687
  60.7272004  13.4278092  37.4440224  61.0836525   9.7382265  34.0023916
  61.1334530   9.5732272  34.9439439  60.9750448   8.8709524  33.6121797
  49.9672783  12.4170810  21.2916005  50.1160904  13.1006275  20.6382678
  50.7739227  12.3975900  21.8065461  58.3740287   5.7213193  35.3183223
  59.2750150   5.5819658  35.0267220  58.4488262   5.8867648  36.2581400
  52.7083092   3.0980047  34.1636409  51.8386402   3.3913614  33.8918998
  52.9442573   3.6820492  34.8843673  62.5854722  12.1579206  34.2465938
  62.2939530  12.5209187  35.0829398  61.9726853  11.4446214  34.0679270
  63.7850404   9.7232086  26.7668508  64.6197295  10.1621890  26.9306068
  63.9209533   9.2470739  25.9476754  60.8341910   7.2811821  32.7145996
  61.3096031   7.4739467  31.9064847  59.9107475   7.3371007  32.4689379
  47.7225416   8.4435988  22.2977074  47.4771458   7.5398318  22.4957284
  47.8921331   8.4453138  21.3556552  55.4122126  -0.6840336  31.6801829
  55.9304070   0.0520691  31.3548318  55.0577259  -0.3776342  32.5148589
  53.4668189  14.9118941  18.7627752  52.8942156  15.5309128  18.3098224
  54.0400983  15.4618303  19.2967674  59.5343579   4.1577581  30.9474301
  60.4861002   4.2575679  30.9686525  59.3647029   3.3655849  31.4572385
  57.5557958   1.2433164  31.1333702  56.9607890   1.5238177  30.4380191
  57.2707655   1.7327065  31.9050443  56.6865449  15.1956091  19.8936335
  57.6196122  15.1301653  20.0969210  56.5988662  16.0312358  19.4350867
  59.3153465  14.5121961  16.8540282  59.2367097  14.1781825  17.7476040
  60.1363132  15.0043729  16.8531754  62.0131657   7.3783701  30.0616601
  61.9807977   6.4399701  30.2476285  62.6232280   7.4567737  29.3282426
  53.8514987   6.2479754  16.1043805  54.7974092   6.1185962  16.1732223
  53.4729232   5.5094415  16.5813233  62.1626145   4.1694744  30.1074884
  61.6465194   3.3853201  29.9204813  63.0466094   3.8413461  30.2721403
  67.8308206   8.4399707  29.2022638  68.5611595   8.1784996  29.7630341
  67.2215152   7.7028429  29.2424706  65.9123504   6.5807570  29.7997089
  65.1856667   6.4463535  29.1913580  65.4970790   6.8884399  30.6053807
  53.7353680  10.2997500  37.5644462  54.6556689  10.4776099  37.7584508
  53.7003263   9.3553545  37.4124161  42.9535845   5.4936093  26.4897736
  42.6338629   4.6401402  26.1972110  42.4069273   5.7084672  27.2455704
  46.7315753   8.2098534  30.2067243  46.9501762   9.1415642  30.2255277
  47.1441526   7.8506509  30.9922047  53.6519970  -1.2833380  22.1942931
  52.8420699  -1.6286295  22.5698177  54.3404387  -1.5925837  22.7830543
  51.6043618   3.7831740  39.5969992  51.5040345   4.7326097  39.5282083
  51.3865160   3.4549979  38.7246062  42.8224105   9.1139005  28.4590858
  42.1287576   8.6992958  27.9460812  43.5697096   9.1559541  27.8624277
  58.9589326  -0.0954808  23.3245892  58.3787995   0.5629996  22.9423945
  58.6925258  -0.9177464  22.9133310  57.4092892  -0.6949751  25.5267213
  57.9092670  -0.5833216  24.7181531  58.0528500  -0.9988698  26.1668021
  51.4674888   7.2128879  38.4135054  50.9841970   8.0129239  38.6198943
  51.5535827   7.2236824  37.4602498  44.7360847   9.0457259  26.3356873
  44.7131536   9.1444946  25.3838756  45.0461484   9.8922409  26.6574039
  47.3948225  11.1033414  30.4503487  48.3491479  11.0717356  30.3833419
  47.1960749  10.6424037  31.2653713  47.9847607   9.6734530  33.0174285
  48.8040496  10.1678608  33.0409122  48.2584415   8.7566498  32.9891852
  57.7414204   2.0645282  22.3802240  56.8540059   2.3494933  22.1622435
  58.1568193   1.9039045  21.5329517  61.0928740   2.0891803  26.0956580
  61.8689130   2.5788255  26.3681197  60.3676874   2.5149857  26.5528449
  63.5301298   2.8019422  27.1530520  64.1245789   2.5615158  26.4423829
  63.6027882   2.0826553  27.7804057  45.7498454  16.6453033  27.4673685
  45.6152922  15.8853434  26.9011683  45.3330516  17.3693933  27.0002474
  56.8857417  11.8289957  16.4750260  57.5893267  12.0339959  17.0907916
  56.1620066  12.3966719  16.7399344  57.7155227   7.5799818  22.5952531
  57.6590429   8.0368369  21.7560163  58.2683570   6.8190503  22.4175373
  61.5260033   3.3689550  23.4202650  61.2696968   2.9686186  24.2510858
  60.9012901   4.0833344  23.2952789  65.8372371   6.1085623  25.9273942
  65.2771929   6.1778812  26.7005504  65.2315875   5.9326608  25.2073438
  48.9067580  17.5422350  27.6792128  48.7899964  18.4867783  27.5770818
  48.0860026  17.2395912  28.0677927  58.7944115  12.2672486  18.5248721
  59.6289718  11.8353684  18.3426195  58.6328457  12.0954500  19.4525615
  58.4490007   8.7704599  19.8905060  58.3938811   8.6048871  18.9493504
  57.8236062   9.4780632  20.0467250  43.2382522   4.0072664  33.7166482
  43.8841385   3.4971618  34.2053707  43.0299673   4.7441345  34.2909907
  55.7635914  11.0753511  39.2158623  56.6327074  11.2494163  38.8545258
  55.2842665  11.8947928  39.0934352  49.9322094  18.1950612  30.8948056
  50.8349341  18.2274222  31.2114551  49.7059464  17.2651063  30.9094392
  51.6875696  16.9481599  27.5558135  50.7371327  16.9483460  27.4422507
  51.9908182  16.2014333  27.0394169  47.5780013   1.1540281  37.8141496
  48.4411474   0.7977086  38.0244821  47.0045423   0.8154175  38.5016901
  67.4228390  22.7842137  28.6203897  68.0606800  22.6648884  27.9167237
  67.3049233  23.7322981  28.6791849  64.2318096  22.7369565  28.5565422
  63.8936607  22.6210630  27.6685957  65.1007864  22.3360730  28.5366428
  60.0904912  24.5905042  24.5462313  59.5269777  24.4994978  23.7778601
  59.9757307  23.7704946  25.0264805  64.7137879  23.8904417  34.5151627
  64.7026520  23.4957215  33.6432131  64.8758518  23.1570489  35.1085399
  57.6369344  26.0856233  27.3846533  58.4290635  25.7447058  26.9692833
  57.8765994  26.1951208  28.3048687  65.6704470  28.2576009  19.8576778
  65.0192450  28.8430090  19.4710792  66.4648833  28.7882204  19.9171815
  59.5960097  25.3465146  20.2563912  60.3690973  24.7994133  20.1176788
  59.9485496  26.2109396  20.4678374  61.4345140  26.6741529  33.4630811
  61.1435006  27.5787159  33.3477478  62.0702124  26.7158056  34.1774881
  62.3601347  24.0518377  30.0532171  62.9564919  23.8274400  29.3389134
  62.4176318  23.3103123  30.6557619  61.9326375  21.5057813  17.8882362
  62.1851896  20.9839334  17.1265825  60.9950934  21.3423958  17.9909046
  66.9769658  20.5093591  25.6957105  67.7632747  20.0913014  25.3447522
  67.2408362  21.4139683  25.8638754  67.1479735  25.9466441  20.3945762
  66.5125568  26.0201068  21.1066667  66.8177142  26.5360040  19.7164841
  72.3778085  20.4468824  26.5990084  73.1103257  19.8768041  26.8327913
  71.6217441  20.0590425  27.0396589  61.6522664  23.4085918  20.0906737
  61.5358922  22.7330822  20.7587821  61.7624924  22.9218292  19.2738890
  63.9954205  22.8696066  23.7953426  63.6312412  22.3426687  24.5066348
  64.8521321  22.4794535  23.6219912  69.9003506  14.1590398  31.0584692
  69.5686830  15.0285809  30.8345907  69.3049119  13.8426682  31.7378723
  63.6359692  17.8985965  18.7914775  63.8034094  18.7666202  19.1585246
  63.4456861  18.0613247  17.8676064  66.3935025  26.3602944  30.4580605
  66.0935748  27.2627983  30.3496412  66.0486085  26.0935127  31.3101758
  59.8447507  22.8116741  26.4917310  58.9198003  22.6792955  26.6995001
  60.0931920  23.5910960  26.9887252  69.7932169  18.8785484  28.1378042
  68.8849046  18.8100893  27.8436803  69.7419765  19.3557429  28.9659868
  63.6148913  20.3543623  19.7761442  63.4948538  20.8000674  20.6146922
  62.9201501  20.7028940  19.2174980  57.2056318  22.4550015  27.3261099
  57.3348699  22.7084493  28.2400510  56.5253769  23.0477723  27.0065754
  61.3755805  33.1247265  23.4251573  61.2979835  34.0755090  23.5040053
  60.7717449  32.7793137  24.0826499  63.8673035  20.2975130  36.0812940
  63.0906369  20.8569050  36.0715804  64.5063598  20.7831913  36.6027810
  71.6593815  17.0801923  29.9155916  71.0168196  17.3734456  29.2695711
  71.1548744  16.9654843  30.7209113  69.3133979  20.8265096  20.6041776
  70.2251835  21.0592483  20.4289473  68.8043626  21.4102140  20.0416854
  62.1219407  23.1060583  35.6430907  62.8634091  23.6445627  35.3665730
  61.4156392  23.7326872  35.8002459  67.5974747  25.2489724  34.2403068
  68.0058103  24.8072134  33.4957701  66.8752008  24.6742351  34.4937261
  63.9505817  20.1862331  31.6136625  64.7967012  20.6101744  31.7571274
  63.8904454  19.5295955  32.3075188  67.9203561  25.8090914  27.9955357
  67.2912424  25.9736629  27.2931425  67.5329223  26.2232524  28.7666321
  71.7992793  26.7445352  25.3499721  71.1143831  27.1244254  24.7996754
  71.8836643  27.3540679  26.0831669  67.1005262  17.8466699  33.2717799
  66.8566194  18.6008759  32.7352075  67.3765193  18.2252047  34.1065046
  69.0543725  24.3905311  31.9495064  69.2660620  25.0337071  31.2729445
  69.0073473  23.5567628  31.4816994  66.6569954  17.0023132  28.8531637
  65.7954433  17.3004385  29.1448374  66.6832388  17.2193531  27.9212669
  63.4731523  25.5465322  25.2605442  63.9369869  25.8253025  24.4710065
  63.2088321  24.6448767  25.0778533  60.3655604  25.0936804  28.1985205
  60.9356961  25.5224072  27.5602690  60.9563716  24.8119389  28.8969391
  62.4100409  21.6688475  22.0695007  63.1124453  22.1209519  22.5368934
  62.0781038  21.0272294  22.6974900  60.8580771  20.2600231  36.4446217
  60.2279431  20.9416512  36.6781614  60.7516859  20.1483313  35.4999355
  56.1525743  19.9272028  27.3712141  55.3624797  20.1829556  26.8952252
  56.6436991  20.7420365  27.4764181  70.1689553  27.2677267  30.1217422
  70.9906996  26.8657454  29.8400103  70.1651956  27.1645501  31.0733538
  58.1040489  20.2916607  24.3295618  57.3071652  20.4035301  24.8479113
  57.8766081  20.6303259  23.4636508  63.9346156  26.8161310  32.2778132
  63.9990589  27.2781717  33.1136304  63.2257080  26.1858675  32.4060442
  54.4363446  20.1802518  29.8027132  54.6871485  21.0649528  30.0684708
  54.9722995  20.0007119  29.0302224  78.2595546  23.6116015  26.4702393
  77.5059254  23.0423413  26.3146398  78.3943087  23.5778680  27.4173028
  63.6494174  28.4829417  22.1457113  63.5139849  29.3280953  22.5741960
  64.1903986  28.6848695  21.3823046  60.1361514  14.5620997  38.8071468
  59.7428459  14.0087196  39.4819112  60.9527654  14.8731576  39.1977985
  57.1023571  26.0004856  22.7185038  57.6148092  26.7948106  22.8690602
  57.7546284  25.3031146  22.6518639  58.9118456  29.1170612  24.8007791
  59.0885084  30.0388576  24.6128775  59.7075289  28.8029031  25.2302171
  63.0529474  15.9778876  36.3991724  63.7939188  16.5786030  36.3196187
  63.2847397  15.2356514  35.8409767  58.1970813  21.1635244  34.6769954
  58.0824328  20.2620501  34.9777053  57.3415330  21.4098940  34.3254771
  65.2762650  29.1052984  36.2757455  64.8326504  28.3189363  35.9578359
  65.9379864  29.2932134  35.6101345  60.0349771  30.6348786  30.8018133
  60.5857197  30.5065849  30.0295127  59.1961247  30.9343675  30.4513026
  67.3743888  29.3855784  34.3038856  67.3562364  30.2064665  33.8119125
  68.2963808  29.2609859  34.5288997  63.8316942  26.8999913  35.1462364
  64.3645279  26.1388202  34.9161672  63.3031024  26.6073565  35.8886519
  66.9986637  12.0059979  30.6756006  66.6550907  12.8961621  30.5995117
  67.3665600  11.8161637  29.8125591  55.0672488  24.3293510  23.4944608
  55.9047710  24.7390518  23.2778316  55.2450756  23.3892952  23.4644802
  66.9636920  21.9968590  19.1828441  66.4483544  22.7673195  19.4216829
  66.6914229  21.3233727  19.8061503  64.5484031  16.8418291  24.2413680
  63.6925628  16.4525142  24.0619318  64.9610983  16.9210252  23.3813465
  66.0783178  14.3764635  28.6405239  65.5747973  14.3394770  27.8273045
  66.3713785  15.2857377  28.7001896  62.3226064  14.4603364  27.6471421
  63.1879060  14.2646173  27.2877310  62.3903573  14.2313716  28.5740778
  71.9371194  24.7500945  21.1181615  71.1600637  24.4112105  20.6736777
  72.6162675  24.7553568  20.4436580  66.7523223  19.8695683  21.0088222
  66.4473359  20.1841832  21.8598366  67.7053665  19.9477102  21.0515555
  65.1969655  26.0285906  22.6581176  64.6691017  25.2938665  22.3454414
  64.6957158  26.8060582  22.4121145  70.1762501  24.2234926  27.7748223
  69.5186176  24.9134188  27.8628351  70.9802900  24.6131358  28.1182209
  59.9288383  16.6905572  25.0187788  60.5032135  16.4680754  24.2860981
  60.5159365  16.7594267  25.7716389  68.9867960  22.5779299  25.8252164
  69.4999842  23.2109291  26.3273874  69.6369184  21.9780495  25.4595524
  60.2557970  18.7210033  19.0383673  59.4195282  19.0584720  19.3592948
  60.1162740  18.5859013  18.1010810  62.2311050  13.5646821  23.7462857
  61.5775463  13.2495838  23.1219472  62.1891525  12.9422562  24.4722680
  63.3422255  23.8466116  15.6616149  62.4349317  23.6155370  15.8607298
  63.8393287  23.0503735  15.8490131  66.2490334  32.5563623  18.5812836
  65.5752033  32.8595320  19.1897793  66.6356156  33.3592704  18.2318293
  65.4648791  20.0528755  28.0710505  64.5471352  20.2743702  27.9132193
  65.8808934  20.1275065  27.2122212  66.2483839  21.4520170  23.2013185
  66.9955658  21.9641567  22.8920307  66.5175428  21.1304223  24.0617579
  64.5210489  23.9478711  20.1840139  63.6121708  23.6637744  20.2812609
  64.5505573  24.3677790  19.3243446  69.7529756  27.5585301  23.9531307
  69.2992083  26.7176210  24.0096497  69.1223723  28.1946699  24.2906087
  68.6962676  18.4877287  25.1831974  67.9585433  17.9754673  25.5142217
  68.9489449  18.0477668  24.3715251  68.1962695  29.3961797  24.8881125
  68.4885670  29.9566854  24.1693491  68.7061316  29.6890358  25.6434284
  68.7974303  11.2653539  25.7773744  69.1033180  10.4050902  25.4899659
  69.5226908  11.8571159  25.5772738  55.0898659  21.6684225  24.1655342
  54.8923059  21.0753586  23.4406408  54.5345323  21.3636435  24.8831280
  63.0695383  21.5607332  26.2849935  63.1243993  20.6081168  26.2092411
  62.2586585  21.7166771  26.7691233  64.2186577  25.4887455  17.5228218
  63.7806007  24.7723314  17.0633855  64.9597017  25.7163569  16.9613309
  61.0087743  20.1784391  24.0440314  60.1955608  20.4778562  24.4505506
  61.5046737  19.7840080  24.7614796  63.1596321  30.1742148  25.9774578
  63.1172499  30.4002995  25.0483110  64.0759020  29.9405523  26.1260380
  66.6061954  20.6426216  32.8755208  66.9611342  20.8697689  33.7349673
  67.2534086  20.9744593  32.2532463  72.3359691  23.7644652  23.5804537
  72.1977590  23.9546248  22.6525726  71.9795910  24.5264035  24.0372588
  60.5001818  17.7502747  29.6601549  61.1401197  17.6091506  28.9624512
  59.6679348  17.4637260  29.2840151  72.3629071  25.8321179  28.5915808
  72.7965578  25.7396468  29.4398862  73.0760652  25.8078679  27.9535824
  61.2762121  27.0505177  25.7736541  62.0702720  26.5555497  25.5719116
  60.5653814  26.5223040  25.4104247  66.0956966  29.4323273  30.1248909
  66.1493988  30.0014209  30.8926625  65.2271747  29.6025158  29.7602946
  57.5844885  21.1948259  21.8496294  56.6542473  21.1332715  22.0666256
  57.6802357  20.6724212  21.0532935  57.5030434  17.7203072  24.4374535
  57.7637251  18.6348405  24.3283696  58.3247606  17.2527514  24.5871148
  58.9755359  19.1340829  31.6073360  59.6478413  18.9258191  30.9586009
  58.1485146  18.9362915  31.1678592  73.2244621  25.8744879  31.1248693
  73.4180511  26.7790690  31.3707968  73.1245239  25.4152298  31.9587279
  64.8780931  15.7602770  33.6239021  64.2308846  16.4592720  33.5303497
  65.6481947  16.1938914  33.9915269  68.2859729  26.0251622  36.6989574
  68.1345236  25.7962174  35.7819658  68.2764409  26.9822224  36.7120919
  65.0545066  23.5983535  31.6835841  65.9837126  23.7494694  31.5104808
  64.6336096  23.6867556  30.8284487  63.8533397  27.6234199  29.4534378
  63.7144483  27.2552984  30.3260316  63.0647994  28.1381839  29.2818336
  64.4481549  32.7243296  20.7959915  64.6233305  32.2531339  21.6105537
  63.7614337  33.3509062  21.0241175  65.4038613  27.0015802  26.8423216
  65.0688445  26.9616572  27.7380866  64.9042558  26.3360518  26.3693626
  59.3782857  22.4083432  32.3675797  59.2402654  21.6763671  32.9687336
  60.2887780  22.3192332  32.0859985  68.3397804  24.3471836  17.1160276
  67.7226975  23.6218664  17.0193328  67.8714293  25.1081197  16.7727350
  62.0065157  22.1203391  31.8559477  62.7164776  21.4796584  31.8146095
  61.9634465  22.3716286  32.7785658  69.9951936  29.0570745  34.7766056
  69.9364482  28.3729965  34.1096639  70.3971454  29.7989735  34.3246682
  60.7194091  19.1068609  33.6755116  60.1831448  18.6559348  34.3276713
  60.1310800  19.2414518  32.9325581  59.0142635  35.8732659  27.5699775
  59.2539233  36.5051183  28.2478793  58.1711831  35.5220699  27.8565134
  60.1296350  18.5657261  16.2381580  59.2525816  18.4446061  15.8743827
  60.6054103  17.7743339  15.9860469  69.9969343  27.0210329  33.0080036
  69.1096122  26.6836250  33.1306435  70.5667894  26.2893360  33.2448801
  51.6498490  23.3534420  26.3323087  52.3369530  23.0396150  25.7444102
  51.4946619  24.2575785  26.0590338  56.4533212  18.2424617  30.7608111
  56.3691401  17.6350286  30.0258521  55.6315919  18.7333635  30.7617607
  63.5270497  31.6811781  29.9741279  63.4540668  32.4866752  30.4860583
  63.0847890  31.8803747  29.1489300  63.3160276  30.9183551  23.4844100
  62.5327798  31.4605231  23.5782325  64.0153021  31.4357531  23.8838342
  66.6256926  16.7278180  26.1278306  67.1225626  15.9748143  25.8079376
  65.8543908  16.7642497  25.5621515  74.4786684  22.4318546  27.7696597
  74.4676560  23.3143261  27.3990530  73.6104063  22.0790097  27.5751134
  65.9869180  31.5798615  32.1299438  66.6997152  32.2146080  32.0575339
  65.4959209  31.6762481  31.3139439  67.7086707  25.4849868  23.7016729
  66.7742986  25.6051330  23.5321433  67.8863375  24.5822334  23.4376739
  63.2091895  18.8695563  25.8549990  62.8389683  18.3166604  26.5430896
  63.7050987  18.2653697  25.3024990  71.0959258  21.3267187  24.2366763
  71.5619711  22.1595179  24.1627066  71.5466759  20.8612169  24.9412022
  61.0381094  29.3293058  32.9505008  61.7390553  29.9629541  33.1034403
  60.5676209  29.6707790  32.1900648  69.1635489  27.6711008  21.2352915
  69.4395333  27.5567603  22.1446789  68.2939988  27.2728493  21.1965088
  69.0675921  13.6947774  28.2757665  68.1539001  13.9252001  28.4439872
  69.4969023  13.7786218  29.1271697  68.8382380  21.8837666  30.7757559
  68.1853830  22.1313573  30.1210011  69.2162759  21.0701804  30.4420036
  65.7989553  31.9197359  24.8785729  65.9811948  31.1019015  25.3413481
  66.6222539  32.1365051  24.4410619  66.1331719  30.8465544  22.1400777
  66.6619485  30.3357999  21.5270940  66.3959939  30.5308074  23.0046310
  64.8869953  22.6257477  37.2623596  64.2110590  22.5251606  37.9325971
  65.7097586  22.4696691  37.7259593  56.6348812  28.8629413  29.8836111
  57.2202248  28.1173101  30.0164015  56.4373650  29.1733370  30.7672775
  59.4887467  31.8980661  24.8998553  58.8197842  32.3826789  24.4162593
  59.3500337  32.1449881  25.8141932  51.2266466  21.4335014  28.6040554
  51.2650566  20.8998604  29.3977672  50.7206759  20.9070219  27.9851531
  63.6292735  33.9324404  31.4981212  64.1811043  34.0956026  32.2630297
  63.9698929  34.5228842  30.8261237  58.6057229  16.2799554  32.1003096
  58.6698555  17.1414385  31.6880494  58.5424349  15.6673556  31.3675455
  58.0809501  18.3522687  35.7476131  58.7081540  17.9699764  36.3613655
  57.2237420  18.1336889  36.1131823  68.4803610  28.7585662  37.3529866
  69.0243514  29.3715620  36.8584821  67.8990455  29.3165240  37.8696879
  54.8575044  20.1599116  21.6794486  55.1528485  19.2509794  21.6261539
  53.9563080  20.1386855  21.3575488  66.7661123  31.8806380  28.4844894
  66.6412262  31.0796120  27.9755839  67.4240214  32.3752573  27.9958864
  58.3869291  18.2355112  27.6622034  57.6655877  18.8491080  27.5229507
  59.1762547  18.7712877  27.5838680  68.8296031  29.6815400  30.1124444
  67.8826367  29.5620751  30.0402771  69.1778804  28.7937898  30.1950705
  61.1895604  15.5709539  33.9362686  61.7130006  15.8171835  34.6988995
  60.9707938  16.4029574  33.5165823  56.5862886  17.8413214  21.8033811
  56.2575592  16.9610592  21.6208917  56.9402256  17.7860882  22.6910200
  65.8342464  29.4768116  26.3128796  65.6867427  28.5484824  26.4936366
  66.6595958  29.4988207  25.8285871  59.7004709  18.1286183  22.1709288
  60.0400781  18.6572105  21.4487897  60.1476829  18.4666589  22.9467855
  69.4376586  30.2996675  27.3993669  70.3623134  30.0939536  27.2618120
  69.2691890  30.0513076  28.3083010  62.3948150  16.5123234  31.6212356
  62.0544970  15.7131047  32.0233036  61.6887156  16.8124945  31.0489190
  63.0464621  13.5972546  30.0739679  63.8690691  13.1233025  29.9518570
  63.2902685  14.3763030  30.5738366  61.6872856  16.6260805  20.3702581
  62.4081218  17.0042058  19.8666298  61.0638160  17.3449682  20.4737559
  65.8303979  17.3305954  21.3060913  66.0467593  18.2130592  21.0049742
  65.3498046  16.9392167  20.5766555  60.5703200  20.2891667  27.8831658
  60.4247781  20.6031970  28.7755940  60.0928404  20.9076567  27.3302557
  62.4299583  17.2794215  27.9312548  62.4161152  16.3835308  27.5944846
  63.1472011  17.2864879  28.5650834  64.2825714  17.7131555  29.9765675
  64.0243492  18.6348626  29.9750005  63.7510754  17.3161990  30.6666139
  69.2271902  30.8182342  22.7555760  69.4008780  30.2528765  22.0029613
  69.7200794  31.6183237  22.5735250  55.0448862  22.8297011  30.8219319
  54.5002330  23.6056819  30.9539594  55.9228212  23.1767816  30.6638441
  61.8336479  16.1608595  23.2000118  61.9552390  15.2325242  23.3991005
  61.5438521  16.1747281  22.2878433  64.7027669  13.8463506  26.3366838
  64.7249366  13.9102839  25.3818817  65.1195728  13.0068014  26.5307344
  75.0811294  23.5818765  24.3746060  75.5242440  22.8326091  23.9765183
  74.2037804  23.5728902  23.9919792  70.2147075  30.1349107  19.8552659
  70.9097980  30.7555799  20.0739973  70.5570225  29.2844458  20.1305037
  55.8314884  21.9566908  33.7149476  55.0896620  22.1049543  34.3014107
  55.5107628  22.2175173  32.8516226  72.1138498  27.5848812  21.3839989
  72.6389822  27.9236085  20.6589310  72.0260851  26.6495828  21.2003124
  63.7758547  31.4982886  33.5129866  64.0845673  31.2532033  34.3852566
  64.5734029  31.7029524  33.0248736  63.7979159  33.6520796  25.7435243
  63.3584149  33.1597174  26.4368099  64.5487276  33.1093763  25.5027318
  56.2771498  29.8432336  25.7459871  57.1029518  29.5436108  25.3658514
  55.9265550  29.0739959  26.1949659  61.2453031  29.1958805  27.8157544
  60.6233040  28.5329510  27.5159772  61.9157898  29.2219937  27.1331192
  54.4780103  27.7618663  26.7048804  53.6412011  27.3340837  26.5232806
  54.4503748  27.9551106  27.6419596  61.3177558  17.6740593  37.4090050
  61.3665714  18.5502716  37.0267820  61.8600073  17.1317986  36.8361694
  71.8032404  28.2181716  36.6891187  71.0127948  28.2005855  36.1495687
  71.5665759  28.7570010  37.4440224  71.9230279  25.0674182  34.0023916
  71.9728284  24.9024190  34.9439439  71.8144203  24.2001441  33.6121797
  60.8066538  27.7462728  21.2916005  60.9554658  28.4298192  20.6382678
  61.6132981  27.7267818  21.8065461  69.2134042  21.0505110  35.3183223
  70.1143904  20.9111575  35.0267220  69.2882016  21.2159565  36.2581400
  63.5476847  18.4271965  34.1636409  62.6780156  18.7205531  33.8918998
  63.7836327  19.0112410  34.8843673  73.4248476  27.4871124  34.2465938
  73.1333284  27.8501104  35.0829398  72.8120607  26.7738132  34.0679270
  74.6244158  25.0524004  26.7668508  75.4591050  25.4913808  26.9306068
  74.7603287  24.5762657  25.9476754  71.6735664  22.6103739  32.7145996
  72.1489786  22.8031385  31.9064847  70.7501230  22.6662924  32.4689379
  58.5619171  23.7727906  22.2977074  58.3165213  22.8690236  22.4957284
  58.7315085  23.7745056  21.3556552  66.2515881  14.6451582  31.6801829
  66.7697825  15.3812609  31.3548318  65.8971014  14.9515575  32.5148589
  57.8314818  19.5056263  19.7963235  57.1384063  19.5800618  19.1403271
  57.5866570  18.7416607  20.3184752  66.5028475  11.0651865  27.2002726
  66.7830229  10.3975054  27.8263153  67.2879082  11.2580960  26.6877390
  64.3061943  30.2410858  18.7627752  63.7335910  30.8601046  18.3098224
  64.8794737  30.7910220  19.2967674  70.3737333  19.4869499  30.9474301
  71.3254756  19.5867596  30.9686525  70.2040784  18.6947767  31.4572385
  68.3951713  16.5725082  31.1333702  67.8001645  16.8530095  30.4380191
  68.1101409  17.0618983  31.9050443  67.5259203  30.5248009  19.8936335
  68.4589876  30.4593570  20.0969210  67.4382416  31.3604275  19.4350867
  70.1547220  29.8413879  16.8540282  70.0760851  29.5073743  17.7476040
  70.9756887  30.3335647  16.8531754  72.8525411  22.7075618  30.0616601
  72.8201731  21.7691619  30.2476285  73.4626035  22.7859655  29.3282426
  64.6908742  21.5771671  16.1043805  65.6367847  21.4477879  16.1732223
  64.3122987  20.8386333  16.5813233  73.0019900  19.4986662  30.1074884
  72.4858948  18.7145118  29.9204813  73.8859848  19.1705378  30.2721403
  70.6630626  13.2427677  26.0670697  70.4655448  12.9342765  26.9514029
  71.2730332  13.9689316  26.1968626  78.6701961  23.7691625  29.2022638
  79.4005349  23.5076913  29.7630341  78.0608906  23.0320347  29.2424706
  76.7517258  21.9099488  29.7997089  76.0250422  21.7755453  29.1913580
  76.3364545  22.2176316  30.6053807  64.5747434  25.6289417  37.5644462
  65.4950444  25.8068016  37.7584508  64.5397017  24.6845463  37.4124161
  62.8751659  19.5021648  16.0398690  61.9683114  19.2054760  16.1161404
  63.1527640  19.2051466  15.1732976  53.7929599  20.8228011  26.4897736
  53.4732384  19.9693319  26.1972110  53.2463028  21.0376589  27.2455704
  57.5709507  23.5390452  30.2067243  57.7895517  24.4707560  30.2255277
  57.9835281  23.1798426  30.9922047  64.4913725  14.0458537  22.1942931
  63.6814453  13.7005622  22.5698177  65.1798142  13.7366081  22.7830543
  66.4204273  13.1236584  23.8167228  66.9735312  13.5432038  24.4757251
  66.6574359  12.1972332  23.8590184  62.4437372  19.1123658  39.5969992
  62.3434099  20.0618015  39.5282083  62.2258914  18.7841897  38.7246062
  61.6450444  16.3608583  16.1810669  62.5069608  16.6863481  16.4406487
  61.8300788  15.5740079  15.6683735  53.6617859  24.4430923  28.4590858
  52.9681331  24.0284875  27.9460812  54.4090850  24.4851459  27.8624277
  69.7983080  15.2337109  23.3245892  69.2181749  15.8921913  22.9423945
  69.5319013  14.4114454  22.9133310  68.2486647  14.6342167  25.5267213
  68.7486425  14.7458702  24.7181531  68.8922254  14.3303220  26.1668021
  62.3068642  22.5420797  38.4135054  61.8235724  23.3421157  38.6198943
  62.3929581  22.5528742  37.4602498  55.5754602  24.3749176  26.3356873
  55.5525290  24.4736864  25.3838756  55.8855238  25.2214327  26.6574039
  58.2341980  26.4325331  30.4503487  59.1885233  26.4009274  30.3833419
  58.0354503  25.9715955  31.2653713  58.8241362  25.0026447  33.0174285
  59.6434251  25.4970526  33.0409122  59.0978170  24.0858416  32.9891852
  68.5807958  17.3937200  22.3802240  67.6933813  17.6786850  22.1622435
  68.9961947  17.2330963  21.5329517  71.9322494  17.4183721  26.0956580
  72.7082884  17.9080173  26.3681197  71.2070628  17.8441775  26.5528449
  74.3695053  18.1311340  27.1530520  74.9639544  17.8907076  26.4423829
  74.4421637  17.4118470  27.7804057  56.5892209  31.9744951  27.4673685
  56.4546677  31.2145352  26.9011683  56.1724271  32.6985851  27.0002474
  67.7251172  27.1581874  16.4750260  68.4287022  27.3631877  17.0907916
  67.0013820  27.7258636  16.7399344  68.5548982  22.9091736  22.5952531
  68.4984183  23.3660287  21.7560163  69.1077324  22.1482420  22.4175373
  72.3653788  18.6981468  23.4202650  72.1090722  18.2978103  24.2510858
  71.7406656  19.4125261  23.2952789  76.6766126  21.4377541  25.9273942
  76.1165684  21.5070730  26.7005504  76.0709629  21.2618525  25.2073438
  59.7461335  32.8714268  27.6792128  59.6293719  33.8159700  27.5770818
  58.9253781  32.5687829  28.0677927  69.6337869  27.5964404  18.5248721
  70.4683473  27.1645602  18.3426195  69.4722212  27.4246417  19.4525615
  69.2883761  24.0996517  19.8905060  69.2332565  23.9340788  18.9493504
  68.6629817  24.8072550  20.0467250  54.0776276  19.3364581  33.7166482
  54.7235140  18.8263535  34.2053707  53.8693427  20.0733263  34.2909907
  66.6029668  26.4045429  39.2158623  67.4720828  26.5786081  38.8545258
  66.1236420  27.2239846  39.0934352  62.5979887  13.6004626  19.4690378
  62.5858557  14.5446466  19.6258649  63.4903309  13.4174771  19.1749839
  60.7715849  33.5242530  30.8948056  61.6743095  33.5566140  31.2114551
  60.5453219  32.5942981  30.9094392  62.5269451  32.2773516  27.5558135
  61.5765082  32.2775378  27.4422507  62.8301937  31.5306251  27.0394169
  66.4132006  10.1947403  23.7236315  65.6464402   9.6405889  23.8692997
  66.8242711  10.2669271  24.5850467  58.4173767  16.4832198  37.8141496
  59.2805229  16.1269003  38.0244821  57.8439178  16.1446093  38.5016901
  78.2622144  38.1134055  28.6203897  78.9000554  37.9940802  27.9167237
  78.1442987  39.0614899  28.6791849  75.0711850  38.0661483  28.5565422
  74.7330362  37.9502547  27.6685957  75.9401619  37.6652648  28.5366428
  70.9298666  39.9196959  24.5462313  70.3663531  39.8286896  23.7778601
  70.8151061  39.0996864  25.0264805  75.5531633  39.2196335  34.5151627
  75.5420274  38.8249133  33.6432131  75.7152273  38.4862407  35.1085399
  68.4763098  41.4148151  27.3846533  69.2684390  41.0738975  26.9692833
  68.7159748  41.5243126  28.3048687  76.5098225  43.5867927  19.8576778
  75.8586205  44.1722007  19.4710792  77.3042588  44.1174122  19.9171815
  70.4353852  40.6757064  20.2563912  71.2084728  40.1286051  20.1176788
  70.7879251  41.5401313  20.4678374  72.2738895  42.0033446  33.4630811
  71.9828761  42.9079077  33.3477478  72.9095879  42.0449974  34.1774881
  73.1995101  39.3810295  30.0532171  73.7958674  39.1566317  29.3389134
  73.2570073  38.6395040  30.6557619  72.7720130  36.8349730  17.8882362
  73.0245650  36.3131251  17.1265825  71.8344689  36.6715876  17.9909046
  77.8163413  35.8385509  25.6957105  78.6026502  35.4204932  25.3447522
  78.0802117  36.7431601  25.8638754  77.9873490  41.2758359  20.3945762
  77.3519323  41.3492985  21.1066667  77.6570896  41.8651958  19.7164841
  83.2171840  35.7760742  26.5990084  83.9497012  35.2059959  26.8327913
  82.4611195  35.3882342  27.0396589  72.4916419  38.7377836  20.0906737
  72.3752677  38.0622740  20.7587821  72.6018678  38.2510210  19.2738890
  74.8347959  38.1987983  23.7953426  74.4706167  37.6718604  24.5066348
  75.6915075  37.8086452  23.6219912  80.7397260  29.4882316  31.0584692
  80.4080585  30.3577727  30.8345907  80.1442873  29.1718600  31.7378723
  74.4753446  33.2277883  18.7914775  74.6427849  34.0958119  19.1585246
  74.2850616  33.3905165  17.8676064  77.2328780  41.6894862  30.4580605
  76.9329503  42.5919901  30.3496412  76.8879839  41.4227045  31.3101758
  70.6841261  38.1408659  26.4917310  69.7591758  38.0084873  26.6995001
  70.9325674  38.9202878  26.9887252  80.6325923  34.2077402  28.1378042
  79.7242801  34.1392810  27.8436803  80.5813519  34.6849347  28.9659868
  74.4542667  35.6835540  19.7761442  74.3342293  36.1292591  20.6146922
  73.7595256  36.0320858  19.2174980  68.0450072  37.7841932  27.3261099
  68.1742453  38.0376411  28.2400510  67.3647523  38.3769640  27.0065754
  72.2149559  48.4539182  23.4251573  72.1373589  49.4047007  23.5040053
  71.6111203  48.1085055  24.0826499  74.7066789  35.6267048  36.0812940
  73.9300123  36.1860968  36.0715804  75.3457352  36.1123831  36.6027810
  82.4987570  32.4093840  29.9155916  81.8561950  32.7026374  29.2695711
  81.9942498  32.2946761  30.7209113  80.1527733  36.1557014  20.6041776
  81.0645590  36.3884400  20.4289473  79.6437381  36.7394058  20.0416854
  78.4368501  40.5781641  34.2403068  78.8451857  40.1364052  33.4957701
  77.7145763  40.0034269  34.4937261  74.7899571  35.5154248  31.6136625
  75.6360766  35.9393662  31.7571274  74.7298209  34.8587873  32.3075188
  78.7597316  41.1382832  27.9955357  78.1306178  41.3028546  27.2931425
  78.3722978  41.5524442  28.7666321  82.6386548  42.0737270  25.3499721
  81.9537586  42.4536171  24.7996754  82.7230397  42.6832597  26.0831669
  77.9399017  33.1758617  33.2717799  77.6959948  33.9300677  32.7352075
  78.2158947  33.5543964  34.1065046  79.8937479  39.7197229  31.9495064
  80.1054375  40.3628989  31.2729445  79.8467228  38.8859545  31.4816994
  77.4963708  32.3315050  28.8531637  76.6348187  32.6296303  29.1448374
  77.5226143  32.5485448  27.9212669  74.3125278  40.8757240  25.2605442
  74.7763623  41.1544943  24.4710065  74.0482076  39.9740685  25.0778533
  71.2049359  40.4228722  28.1985205  71.7750716  40.8515990  27.5602690
  71.7957471  40.1411306  28.8969391  73.2494164  36.9980393  22.0695007
  73.9518207  37.4501436  22.5368934  72.9174792  36.3564211  22.6974900
  71.6974525  35.5892149  36.4446217  71.0673186  36.2708430  36.6781614
  71.5910613  35.4775231  35.4999355  66.9919498  35.2563945  27.3712141
  66.2018552  35.5121474  26.8952252  67.4830745  36.0712283  27.4764181
  81.0083307  42.5969184  30.1217422  81.8300751  42.1949372  29.8400103
  81.0045710  42.4937419  31.0733538  68.9434243  35.6208524  24.3295618
  68.1465406  35.7327219  24.8479113  68.7159835  35.9595177  23.4636508
  74.7739911  42.1453228  32.2778132  74.8384343  42.6073635  33.1136304
  74.0650835  41.5150593  32.4060442  65.2757201  35.5094436  29.8027132
  65.5265239  36.3941446  30.0684708  65.8116749  35.3299037  29.0302224
  89.0989300  38.9407933  26.4702393  88.3453009  38.3715331  26.3146398
  89.2336842  38.9070597  27.4173028  74.4887928  43.8121335  22.1457113
  74.3533603  44.6572871  22.5741960  75.0297741  44.0140613  21.3823046
  70.9755268  29.8912915  38.8071468  70.5822214  29.3379114  39.4819112
  71.7921408  30.2023493  39.1977985  67.9417326  41.3296773  22.7185038
  68.4541846  42.1240023  22.8690602  68.5940039  40.6323064  22.6518639
  69.7512210  44.4462529  24.8007791  69.9278839  45.3680494  24.6128775
  70.5469044  44.1320949  25.2302171  73.8923229  31.3070794  36.3991724
  74.6332942  31.9077947  36.3196187  74.1241152  30.5648432  35.8409767
  69.0364567  36.4927161  34.6769954  68.9218082  35.5912419  34.9777053
  68.1809085  36.7390858  34.3254771  76.1156405  44.4344902  36.2757455
  75.6720259  43.6481280  35.9578359  76.7773618  44.6224052  35.6101345
  70.8743526  45.9640703  30.8018133  71.4250951  45.8357767  30.0295127
  70.0355002  46.2635592  30.4513026  78.2137643  44.7147702  34.3038856
  78.1956118  45.5356583  33.8119125  79.1357563  44.5901777  34.5288997
  74.6710697  42.2291831  35.1462364  75.2039034  41.4680119  34.9161672
  74.1424778  41.9365483  35.8886519  77.8380392  27.3351897  30.6756006
  77.4944661  28.2253539  30.5995117  78.2059355  27.1453555  29.8125591
  65.9066243  39.6585427  23.4944608  66.7441465  40.0682436  23.2778316
  66.0844510  38.7184870  23.4644802  77.8030675  37.3260508  19.1828441
  77.2877298  38.0965113  19.4216829  77.5307983  36.6525644  19.8061503
  75.3877786  32.1710209  24.2413680  74.5319382  31.7817059  24.0619318
  75.8004737  32.2502170  23.3813465  76.9176932  29.7056552  28.6405239
  76.4141728  29.6686687  27.8273045  77.2107539  30.6149295  28.7001896
  73.1619818  29.7895282  27.6471421  74.0272815  29.5938091  27.2877310
  73.2297327  29.5605634  28.5740778  82.7764949  40.0792863  21.1181615
  81.9994392  39.7404022  20.6736777  83.4556430  40.0845486  20.4436580
  77.5916978  35.1987600  21.0088222  77.2867113  35.5133749  21.8598366
  78.5447420  35.2769020  21.0515555  76.0363410  41.3577824  22.6581176
  75.5084771  40.6230583  22.3454414  75.5350912  42.1352500  22.4121145
  81.0156256  39.5526844  27.7748223  80.3579930  40.2426105  27.8628351
  81.8196655  39.9423276  28.1182209  70.7682137  32.0197490  25.0187788
  71.3425889  31.7972671  24.2860981  71.3553120  32.0886184  25.7716389
  79.8261714  37.9071217  25.8252164  80.3393596  38.5401209  26.3273874
  80.4762938  37.3072412  25.4595524  71.0951724  34.0501951  19.0383673
  70.2589037  34.3876637  19.3592948  70.9556494  33.9150931  18.1010810
  73.0704805  28.8938739  23.7462857  72.4169217  28.5787756  23.1219472
  73.0285279  28.2714479  24.4722680  74.1816010  39.1758034  15.6616149
  73.2743072  38.9447287  15.8607298  74.6787042  38.3795653  15.8490131
  77.0884089  47.8855541  18.5812836  76.4145787  48.1887238  19.1897793
  77.4749911  48.6884621  18.2318293  76.3042545  35.3820672  28.0710505
  75.3865107  35.6035619  27.9132193  76.7202689  35.4566983  27.2122212
  77.0877593  36.7812088  23.2013185  77.8349412  37.2933485  22.8920307
  77.3569183  36.4596141  24.0617579  75.3604243  39.2770629  20.1840139
  74.4515463  38.9929661  20.2812609  75.3899327  39.6969707  19.3243446
  80.5923511  42.8877218  23.9531307  80.1385838  42.0468128  24.0096497
  79.9617477  43.5238617  24.2906087  79.5356430  33.8169204  25.1831974
  78.7979187  33.3046590  25.5142217  79.7883204  33.3769586  24.3715251
  79.0356450  44.7253715  24.8881125  79.3279424  45.2858772  24.1693491
  79.5455071  45.0182276  25.6434284  79.6368058  26.5945456  25.7773744
  79.9426934  25.7342820  25.4899659  80.3620662  27.1863076  25.5772738
  65.9292414  36.9976143  24.1655342  65.7316813  36.4045504  23.4406408
  65.3739078  36.6928353  24.8831280  73.9089137  36.8899249  26.2849935
  73.9637747  35.9373086  26.2092411  73.0980339  37.0458688  26.7691233
  75.0580331  40.8179372  17.5228218  74.6199761  40.1015231  17.0633855
  75.7990772  41.0455487  16.9613309  71.8481497  35.5076309  24.0440314
  71.0349363  35.8070480  24.4505506  72.3440491  35.1131998  24.7614796
  73.9990075  45.5034066  25.9774578  73.9566254  45.7294912  25.0483110
  74.9152774  45.2697441  26.1260380  77.4455709  35.9718134  32.8755208
  77.8005097  36.1989607  33.7349673  78.0927840  36.3036510  32.2532463
  83.1753446  39.0936569  23.5804537  83.0371344  39.2838165  22.6525726
  82.8189665  39.8555952  24.0372588  71.3395572  33.0794665  29.6601549
  71.9794951  32.9383424  28.9624512  70.5073103  32.7929178  29.2840151
  83.2022825  41.1613096  28.5915808  83.6359332  41.0688385  29.4398862
  83.9154406  41.1370597  27.9535824  72.1155876  42.3797095  25.7736541
  72.9096474  41.8847415  25.5719116  71.4047568  41.8514958  25.4104247
  76.9350720  44.7615191  30.1248909  76.9887743  45.3306127  30.8926625
  76.0665502  44.9317076  29.7602946  68.4238639  36.5240177  21.8496294
  67.4936227  36.4624632  22.0666256  68.5196111  36.0016129  21.0532935
  68.3424188  33.0494990  24.4374535  68.6031006  33.9640323  24.3283696
  69.1641361  32.5819432  24.5871148  69.8149114  34.4632747  31.6073360
  70.4872167  34.2550109  30.9586009  68.9878900  34.2654833  31.1678592
  84.0638375  41.2036797  31.1248693  84.2574265  42.1082608  31.3707968
  83.9638993  40.7444216  31.9587279  75.7174686  31.0894688  33.6239021
  75.0702601  31.7884637  33.5303497  76.4875701  31.5230832  33.9915269
  79.1253484  41.3543540  36.6989574  78.9738990  41.1254091  35.7819658
  79.1158163  42.3114141  36.7120919  75.8938820  38.9275453  31.6835841
  76.8230880  39.0786612  31.5104808  75.4729850  39.0159473  30.8284487
  74.6927152  42.9526117  29.4534378  74.5538238  42.5844901  30.3260316
  73.9041748  43.4673756  29.2818336  75.2875304  48.0535213  20.7959915
  75.4627060  47.5823257  21.6105537  74.6008092  48.6800980  21.0241175
  76.2432367  42.3307720  26.8423216  75.9082200  42.2908490  27.7380866
  75.7436313  41.6652436  26.3693626  70.2176611  37.7375350  32.3675797
  70.0796409  37.0055589  32.9687336  71.1281534  37.6484250  32.0859985
  79.1791559  39.6763754  17.1160276  78.5620729  38.9510582  17.0193328
  78.7108047  40.4373114  16.7727350  72.8458912  37.4495309  31.8559477
  73.5558530  36.8088501  31.8146095  72.8028220  37.7008204  32.7785658
  80.8345690  44.3862662  34.7766056  80.7758237  43.7021882  34.1096639
  81.2365209  45.1281652  34.3246682  71.5587846  34.4360527  33.6755116
  71.0225203  33.9851265  34.3276713  70.9704554  34.5706436  32.9325581
  69.8536389  51.2024576  27.5699775  70.0932987  51.8343100  28.2478793
  69.0105586  50.8512616  27.8565134  70.9690105  33.8949178  16.2381580
  70.0919571  33.7737979  15.8743827  71.4447858  33.1035257  15.9860469
  80.8363098  42.3502246  33.0080036  79.9489876  42.0128168  33.1306435
  81.4061649  41.6185278  33.2448801  62.4892245  38.6826338  26.3323087
  63.1763285  38.3688068  25.7444102  62.3340373  39.5867703  26.0590338
  67.2926967  33.5716535  30.7608111  67.2085156  32.9642204  30.0258521
  66.4709673  34.0625553  30.7617607  74.3664251  47.0103699  29.9741279
  74.2934423  47.8158670  30.4860583  73.9241644  47.2095664  29.1489300
  74.1554031  46.2475469  23.4844100  73.3721553  46.7897149  23.5782325
  74.8546776  46.7649448  23.8838342  77.4650681  32.0570098  26.1278306
  77.9619380  31.3040060  25.8079376  76.6937662  32.0934415  25.5621515
  85.3180438  37.7610464  27.7696597  85.3070314  38.6435179  27.3990530
  84.4497818  37.4082014  27.5751134  76.8262935  46.9090533  32.1299438
  77.5390907  47.5437997  32.0575339  76.3352963  47.0054399  31.3139439
  78.5480461  40.8141785  23.7016729  77.6136740  40.9343248  23.5321433
  78.7257130  39.9114252  23.4376739  74.0485650  34.1987481  25.8549990
  73.6783437  33.6458521  26.5430896  74.5444742  33.5945615  25.3024990
  81.9353013  36.6559105  24.2366763  82.4013465  37.4887096  24.1627066
  82.3860513  36.1904086  24.9412022  80.0029244  43.0002926  21.2352915
  80.2789088  42.8859520  22.1446789  79.1333743  42.6020411  21.1965088
  79.9069676  29.0239692  28.2757665  78.9932755  29.2543918  28.4439872
  80.3362777  29.1078136  29.1271697  79.6776134  37.2129584  30.7757559
  79.0247584  37.4605491  30.1210011  80.0556514  36.3993722  30.4420036
  76.6383308  47.2489277  24.8785729  76.8205702  46.4310933  25.3413481
  77.4616294  47.4656969  24.4410619  76.9725473  46.1757462  22.1400777
  77.5013240  45.6649916  21.5270940  77.2353693  45.8599992  23.0046310
  75.7263707  37.9549395  37.2623596  75.0504344  37.8543524  37.9325971
  76.5491341  37.7988608  37.7259593  70.3281221  47.2272579  24.8998553
  69.6591597  47.7118706  24.4162593  70.1894091  47.4741799  25.8141932
  62.0660221  36.7626931  28.6040554  62.1044320  36.2290522  29.3977672
  61.5600514  36.2362137  27.9851531  74.4686490  49.2616322  31.4981212
  75.0204798  49.4247944  32.2630297  74.8092683  49.8520760  30.8261237
  69.4450983  31.6091472  32.1003096  69.5092310  32.4706303  31.6880494
  69.3818103  30.9965474  31.3675455  68.9203256  33.6814604  35.7476131
  69.5475295  33.2991682  36.3613655  68.0631175  33.4628806  36.1131823
  79.3197364  44.0877580  37.3529866  79.8637268  44.7007538  36.8584821
  78.7384209  44.6457158  37.8696879  65.6968798  35.4891034  21.6794486
  65.9922240  34.5801712  21.6261539  64.7956834  35.4678773  21.3575488
  77.6054877  47.2098298  28.4844894  77.4806017  46.4088037  27.9755839
  78.2633968  47.7044491  27.9958864  69.2263045  33.5647030  27.6622034
  68.5049631  34.1782998  27.5229507  70.0156301  34.1004795  27.5838680
  79.6689786  45.0107318  30.1124444  78.7220121  44.8912669  30.0402771
  80.0172559  44.1229816  30.1950705  72.0289359  30.9001457  33.9362686
  72.5523761  31.1463753  34.6988995  71.8101692  31.7321491  33.5165823
  67.4256640  33.1705131  21.8033811  67.0969346  32.2902510  21.6208917
  67.7796011  33.1152800  22.6910200  76.6736219  44.8060034  26.3128796
  76.5261181  43.8776741  26.4936366  77.4989712  44.8280125  25.8285871
  70.5398463  33.4578101  22.1709288  70.8794536  33.9864022  21.4487897
  70.9870584  33.7958507  22.9467855  80.2770341  45.6288593  27.3993669
  81.2016888  45.4231454  27.2618120  80.1085644  45.3804994  28.3083010
  73.2341904  31.8415152  31.6212356  72.8938724  31.0422965  32.0233036
  72.5280910  32.1416863  31.0489190  73.8858376  28.9264464  30.0739679
  74.7084445  28.4524942  29.9518570  74.1296439  29.7054948  30.5738366
  72.5266610  31.9552723  20.3702581  73.2474973  32.3333975  19.8666298
  71.9031914  32.6741599  20.4737559  76.6697733  32.6597872  21.3060913
  76.8861348  33.5422509  21.0049742  76.1891800  32.2684085  20.5766555
  71.4096955  35.6183585  27.8831658  71.2641535  35.9323888  28.7755940
  70.9322158  36.2368485  27.3302557  73.2693337  32.6086133  27.9312548
  73.2554906  31.7127226  27.5944846  73.9865766  32.6156797  28.5650834
  75.1219468  33.0423473  29.9765675  74.8637246  33.9640544  29.9750005
  74.5904509  32.6453908  30.6666139  80.0665657  46.1474260  22.7555760
  80.2402534  45.5820683  22.0029613  80.5594548  46.9475155  22.5735250
  72.6730233  31.4900513  23.2000118  72.7946145  30.5617159  23.3991005
  72.3832276  31.5039199  22.2878433  75.5421424  29.1755423  26.3366838
  75.5643121  29.2394757  25.3818817  75.9589483  28.3359932  26.5307344
  85.9205048  38.9110683  24.3746060  86.3636194  38.1618008  23.9765183
  85.0431558  38.9020819  23.9919792  81.0540829  45.4641025  19.8552659
  81.7491734  46.0847717  20.0739973  81.3963980  44.6136376  20.1305037
  82.9532253  42.9140730  21.3839989  83.4783577  43.2528003  20.6589310
  82.8654605  41.9787745  21.2003124  74.6152301  46.8274804  33.5129866
  74.9239428  46.5823950  34.3852566  75.4127783  47.0321442  33.0248736
  74.6372913  48.9812713  25.7435243  74.1977904  48.4889092  26.4368099
  75.3881030  48.4385681  25.5027318  67.1165252  45.1724254  25.7459871
  67.9423272  44.8728026  25.3658514  66.7659304  44.4031877  26.1949659
  72.0846785  44.5250722  27.8157544  71.4626795  43.8621427  27.5159772
  72.7551652  44.5511854  27.1331192  65.3173857  43.0910581  26.7048804
  64.4805766  42.6632755  26.5232806  65.2897503  43.2843024  27.6419596
  72.1571313  33.0032510  37.4090050  72.2059468  33.8794633  37.0267820
  72.6993827  32.4609903  36.8361694  82.6426159  43.5473634  36.6891187
  81.8521702  43.5297773  36.1495687  82.4059513  44.0861927  37.4440224
  82.7624034  40.3966100  34.0023916  82.8122039  40.2316107  34.9439439
  82.6537957  39.5293359  33.6121797  71.6460292  43.0754646  21.2916005
  71.7948413  43.7590110  20.6382678  72.4526736  43.0559736  21.8065461
  80.0527796  36.3797028  35.3183223  80.9537659  36.2403493  35.0267220
  80.1275771  36.5451483  36.2581400  74.3870601  33.7563883  34.1636409
  73.5173911  34.0497449  33.8918998  74.6230082  34.3404328  34.8843673
  84.2642231  42.8163042  34.2465938  83.9727039  43.1793022  35.0829398
  83.6514362  42.1030050  34.0679270  85.4637913  40.3815921  26.7668508
  86.2984804  40.8205725  26.9306068  85.5997042  39.9054575  25.9476754
  82.5129419  37.9395656  32.7145996  82.9883540  38.1323302  31.9064847
  81.5894984  37.9954842  32.4689379  69.4012925  39.1019823  22.2977074
  69.1558967  38.1982153  22.4957284  69.5708840  39.1036974  21.3556552
  77.0909635  29.9743500  31.6801829  77.6091579  30.7104527  31.3548318
  76.7364768  30.2807493  32.5148589  68.6708573  34.8348181  19.7963235
  67.9777818  34.9092536  19.1403271  68.4260325  34.0708525  20.3184752
  77.3422229  26.3943782  27.2002726  77.6223983  25.7266971  27.8263153
  78.1272836  26.5872878  26.6877390  75.1455698  45.5702776  18.7627752
  74.5729665  46.1892963  18.3098224  75.7188492  46.1202138  19.2967674
  81.2131088  34.8161416  30.9474301  82.1648511  34.9159514  30.9686525
  81.0434538  34.0239685  31.4572385  79.2345467  31.9016999  31.1333702
  78.6395399  32.1822012  30.4380191  78.9495164  32.3910900  31.9050443
  78.3652958  45.8539926  19.8936335  79.2983631  45.7885488  20.0969210
  78.2776171  46.6896193  19.4350867  80.9940974  45.1705797  16.8540282
  80.9154606  44.8365660  17.7476040  81.8150641  45.6627565  16.8531754
  83.6919166  38.0367536  30.0616601  83.6595486  37.0983537  30.2476285
  84.3019789  38.1151573  29.3282426  75.5302496  36.9063589  16.1043805
  76.4761601  36.7769797  16.1732223  75.1516741  36.1678251  16.5813233
  83.8413654  34.8278579  30.1074884  83.3252703  34.0437036  29.9204813
  84.7253603  34.4997296  30.2721403  81.5024381  28.5719595  26.0670697
  81.3049202  28.2634683  26.9514029  82.1124087  29.2981234  26.1968626
  89.5095715  39.0983543  29.2022638  90.2399104  38.8368831  29.7630341
  88.9002661  38.3612265  29.2424706  87.5911013  37.2391405  29.7997089
  86.8644176  37.1047370  29.1913580  87.1758299  37.5468234  30.6053807
  75.4141189  40.9581335  37.5644462  76.3344198  41.1359934  37.7584508
  75.3790772  40.0137380  37.4124161  73.7145414  34.8313565  16.0398690
  72.8076869  34.5346678  16.1161404  73.9921395  34.5343383  15.1732976
  64.6323354  36.1519929  26.4897736  64.3126138  35.2985237  26.1972110
  64.0856782  36.3668507  27.2455704  68.4103261  38.8682370  30.2067243
  68.6289271  39.7999478  30.2255277  68.8229035  38.5090344  30.9922047
  75.3307479  29.3750455  22.1942931  74.5208208  29.0297540  22.5698177
  76.0191896  29.0657999  22.7830543  77.2598028  28.4528502  23.8167228
  77.8129066  28.8723955  24.4757251  77.4968114  27.5264250  23.8590184
  73.2831127  34.4415575  39.5969992  73.1827854  35.3909932  39.5282083
  73.0652669  34.1133814  38.7246062  72.4844198  31.6900501  16.1810669
  73.3463362  32.0155399  16.4406487  72.6694542  30.9031996  15.6683735
  64.5011614  39.7722840  28.4590858  63.8075085  39.3576793  27.9460812
  65.2484605  39.8143377  27.8624277  80.6376835  30.5629027  23.3245892
  80.0575504  31.2213831  22.9423945  80.3712767  29.7406372  22.9133310
  79.0880401  29.9634085  25.5267213  79.5880179  30.0750619  24.7181531
  79.7316009  29.6595138  26.1668021  66.4148356  39.7041094  26.3356873
  66.3919045  39.8028781  25.3838756  66.7248993  40.5506245  26.6574039
  79.4201713  32.7229117  22.3802240  78.5327568  33.0078768  22.1622435
  79.8355702  32.5622881  21.5329517  82.7716249  32.7475638  26.0956580
  83.5476639  33.2372091  26.3681197  82.0464383  33.1733693  26.5528449
  85.2088807  33.4603258  27.1530520  85.8033298  33.2198994  26.4423829
  85.2815391  32.7410388  27.7804057  67.4285963  47.3036869  27.4673685
  67.2940431  46.5437269  26.9011683  67.0118025  48.0277768  27.0002474
  78.5644926  42.4873792  16.4750260  79.2680776  42.6923795  17.0907916
  77.8407575  43.0550554  16.7399344  79.3942736  38.2383653  22.5952531
  79.3377938  38.6952205  21.7560163  79.9471079  37.4774338  22.4175373
  83.2047542  34.0273385  23.4202650  82.9484477  33.6270021  24.2510858
  82.5800410  34.7417179  23.2952789  87.5159880  36.7669458  25.9273942
  86.9559438  36.8362648  26.7005504  86.9103384  36.5910443  25.2073438
  70.5855089  48.2006186  27.6792128  70.4687473  49.1451618  27.5770818
  69.7647535  47.8979747  28.0677927  80.4731624  42.9256321  18.5248721
  81.3077227  42.4937520  18.3426195  80.3115966  42.7538335  19.4525615
  80.1277516  39.4288435  19.8905060  80.0726320  39.2632706  18.9493504
  79.5023571  40.1364467  20.0467250  77.4423423  41.7337346  39.2158623
  78.3114583  41.9077999  38.8545258  76.9630174  42.5531763  39.0934352
  73.4373641  28.9296544  19.4690378  73.4252311  29.8738383  19.6258649
  74.3297063  28.7466689  19.1749839  71.6109603  48.8534447  30.8948056
  72.5136850  48.8858058  31.2114551  71.3846973  47.9234898  30.9094392
  73.3663205  47.6065434  27.5558135  72.4158836  47.6067296  27.4422507
  73.6695691  46.8598169  27.0394169  77.2525761  25.5239320  23.7236315
  76.4858156  24.9697807  23.8692997  77.6636466  25.5961189  24.5850467
  69.2567522  31.8124116  37.8141496  70.1198983  31.4560921  38.0244821
  68.6832932  31.4738011  38.5016901  89.1015899  53.4425972  28.6203897
  89.7394309  53.3232720  27.9167237  88.9836742  54.3906816  28.6791849
  85.9105605  53.3953400  28.5565422  85.5724116  53.2794465  27.6685957
  86.7795373  52.9944566  28.5366428  81.7692421  55.2488877  24.5462313
  81.2057286  55.1578814  23.7778601  81.6544816  54.4288781  25.0264805
  86.3925388  54.5488252  34.5151627  86.3814029  54.1541050  33.6432131
  86.5546027  53.8154325  35.1085399  79.3156853  56.7440068  27.3846533
  80.1078144  56.4030893  26.9692833  79.5553503  56.8535044  28.3048687
  87.3491979  58.9159845  19.8576778  86.6979959  59.5013925  19.4710792
  88.1436342  59.4466039  19.9171815  81.2747606  56.0048982  20.2563912
  82.0478482  55.4577969  20.1176788  81.6273005  56.8693231  20.4678374
  83.1132649  57.3325364  33.4630811  82.8222515  58.2370995  33.3477478
  83.7489633  57.3741892  34.1774881  84.0388856  54.7102213  30.0532171
  84.6352428  54.4858235  29.3389134  84.0963827  53.9686958  30.6557619
  83.6113884  52.1641648  17.8882362  83.8639405  51.6423169  17.1265825
  82.6738443  52.0007793  17.9909046  88.6557167  51.1677426  25.6957105
  89.4420256  50.7496849  25.3447522  88.9195871  52.0723518  25.8638754
  88.8267244  56.6050277  20.3945762  88.1913077  56.6784903  21.1066667
  88.4964651  57.1943875  19.7164841  94.0565594  51.1052659  26.5990084
  94.7890766  50.5351876  26.8327913  93.3004950  50.7174260  27.0396589
  83.3310173  54.0669754  20.0906737  83.2146431  53.3914657  20.7587821
  83.4412433  53.5802128  19.2738890  85.6741714  53.5279901  23.7953426
  85.3099921  53.0010522  24.5066348  86.5308830  53.1378370  23.6219912
  91.5791015  44.8174234  31.0584692  91.2474339  45.6869644  30.8345907
  90.9836628  44.5010518  31.7378723  85.3147201  48.5569801  18.7914775
  85.4821603  49.4250037  19.1585246  85.1244370  48.7197082  17.8676064
  88.0722534  57.0186780  30.4580605  87.7723257  57.9211818  30.3496412
  87.7273594  56.7518963  31.3101758  81.5235016  53.4700576  26.4917310
  80.5985512  53.3376790  26.6995001  81.7719429  54.2494796  26.9887252
  91.4719678  49.5369320  28.1378042  90.5636555  49.4684728  27.8436803
  91.4207274  50.0141265  28.9659868  85.2936422  51.0127458  19.7761442
  85.1736047  51.4584509  20.6146922  84.5989010  51.3612776  19.2174980
  78.8843827  53.1133850  27.3261099  79.0136208  53.3668329  28.2400510
  78.2041278  53.7061558  27.0065754  83.0543314  63.7831100  23.4251573
  82.9767344  64.7338925  23.5040053  82.4504958  63.4376972  24.0826499
  85.5460544  50.9558965  36.0812940  84.7693878  51.5152885  36.0715804
  86.1851107  51.4415748  36.6027810  93.3381324  47.7385758  29.9155916
  92.6955705  48.0318291  29.2695711  92.8336253  47.6238678  30.7209113
  90.9921488  51.4848931  20.6041776  91.9039344  51.7176318  20.4289473
  90.4831135  52.0685976  20.0416854  83.8006916  53.7644419  35.6430907
  84.5421600  54.3029463  35.3665730  83.0943901  54.3910707  35.8002459
  89.2762256  55.9073559  34.2403068  89.6845612  55.4655970  33.4957701
  88.5539517  55.3326187  34.4937261  85.6293326  50.8446166  31.6136625
  86.4754521  51.2685579  31.7571274  85.5691963  50.1879790  32.3075188
  89.5991070  56.4674750  27.9955357  88.9699933  56.6320464  27.2931425
  89.2116732  56.8816359  28.7666321  93.4780302  57.4029188  25.3499721
  92.7931340  57.7828089  24.7996754  93.5624152  58.0124514  26.0831669
  88.7792771  48.5050534  33.2717799  88.5353703  49.2592595  32.7352075
  89.0552702  48.8835882  34.1065046  90.7331234  55.0489147  31.9495064
  90.9448129  55.6920907  31.2729445  90.6860982  54.2151463  31.4816994
  88.3357463  47.6606967  28.8531637  87.4741942  47.9588221  29.1448374
  88.3619897  47.8777366  27.9212669  85.1519032  56.2049158  25.2605442
  85.6157378  56.4836861  24.4710065  84.8875830  55.3032602  25.0778533
  82.0443113  55.7520639  28.1985205  82.6144470  56.1807908  27.5602690
  82.6351225  55.4703224  28.8969391  84.0887918  52.3272310  22.0695007
  84.7911962  52.7793354  22.5368934  83.7568547  51.6856129  22.6974900
  82.5368280  50.9184067  36.4446217  81.9066940  51.6000348  36.6781614
  82.4304368  50.8067148  35.4999355  77.8313252  50.5855863  27.3712141
  77.0412306  50.8413391  26.8952252  78.3224500  51.4004201  27.4764181
  91.8477062  57.9261102  30.1217422  92.6694505  57.5241289  29.8400103
  91.8439465  57.8229336  31.0733538  79.7827998  50.9500442  24.3295618
  78.9859161  51.0619136  24.8479113  79.5553590  51.2887094  23.4636508
  85.6133665  57.4745145  32.2778132  85.6778098  57.9365553  33.1136304
  84.9044589  56.8442510  32.4060442  76.1150955  50.8386353  29.8027132
  76.3658994  51.7233363  30.0684708  76.6510504  50.6590955  29.0302224
  99.9383055  54.2699851  26.4702393  99.1846763  53.7007249  26.3146398
 100.0730596  54.2362515  27.4173028  85.3281683  59.1413253  22.1457113
  85.1927358  59.9864789  22.5741960  85.8691495  59.3432530  21.3823046
  81.8149022  45.2204833  38.8071468  81.4215968  44.6671031  39.4819112
  82.6315163  45.5315411  39.1977985  78.7811080  56.6588691  22.7185038
  79.2935601  57.4531941  22.8690602  79.4333793  55.9614981  22.6518639
  80.5905965  59.7754447  24.8007791  80.7672593  60.6972412  24.6128775
  81.3862798  59.4612866  25.2302171  84.7316983  46.6362712  36.3991724
  85.4726697  47.2369865  36.3196187  84.9634906  45.8940350  35.8409767
  79.8758321  51.8219079  34.6769954  79.7611837  50.9204336  34.9777053
  79.0202839  52.0682776  34.3254771  86.9550159  59.7636819  36.2757455
  86.5114013  58.9773198  35.9578359  87.6167373  59.9515970  35.6101345
  81.7137280  61.2932621  30.8018133  82.2644706  61.1649684  30.0295127
  80.8748756  61.5927510  30.4513026  89.0531397  60.0439619  34.3038856
  89.0349873  60.8648500  33.8119125  89.9751317  59.9193694  34.5288997
  85.5104451  57.5583749  35.1462364  86.0432788  56.7972037  34.9161672
  84.9818533  57.2657401  35.8886519  88.6774146  42.6643815  30.6756006
  88.3338416  43.5545456  30.5995117  89.0453109  42.4745472  29.8125591
  76.7459997  54.9877345  23.4944608  77.5835219  55.3974354  23.2778316
  76.9238265  54.0476787  23.4644802  88.6424429  52.6552426  19.1828441
  88.1271053  53.4257030  19.4216829  88.3701738  51.9817562  19.8061503
  86.2271540  47.5002127  24.2413680  85.3713137  47.1108977  24.0619318
  86.6398492  47.5794087  23.3813465  87.7570687  45.0348470  28.6405239
  87.2535482  44.9978605  27.8273045  88.0501294  45.9441213  28.7001896
  84.0013573  45.1187200  27.6471421  84.8666569  44.9230008  27.2877310
  84.0691082  44.8897551  28.5740778  93.6158703  55.4084780  21.1181615
  92.8388146  55.0695940  20.6736777  94.2950184  55.4137404  20.4436580
  88.4310732  50.5279518  21.0088222  88.1260868  50.8425667  21.8598366
  89.3841174  50.6060938  21.0515555  86.8757164  56.6869741  22.6581176
  86.3478526  55.9522501  22.3454414  86.3744667  57.4644418  22.4121145
  91.8550010  54.8818762  27.7748223  91.1973685  55.5718023  27.8628351
  92.6590409  55.2715194  28.1182209  81.6075892  47.3489408  25.0187788
  82.1819644  47.1264589  24.2860981  82.1946874  47.4178102  25.7716389
  90.6655469  53.2363134  25.8252164  91.1787351  53.8693126  26.3273874
  91.3156693  52.6364330  25.4595524  81.9345479  49.3793869  19.0383673
  81.0982791  49.7168555  19.3592948  81.7950249  49.2442848  18.1010810
  83.9098559  44.2230656  23.7462857  83.2562972  43.9079674  23.1219472
  83.8679034  43.6006397  24.4722680  85.0209764  54.5049951  15.6616149
  84.1136826  54.2739205  15.8607298  85.5180796  53.7087571  15.8490131
  87.9277843  63.2147459  18.5812836  87.2539542  63.5179155  19.1897793
  88.3143665  64.0176539  18.2318293  87.1436300  50.7112590  28.0710505
  86.2258861  50.9327537  27.9132193  87.5596443  50.7858900  27.2122212
  87.9271348  52.1104006  23.2013185  88.6743167  52.6225403  22.8920307
  88.1962937  51.7888058  24.0617579  86.1997998  54.6062546  20.1840139
  85.2909217  54.3221579  20.2812609  86.2293082  55.0261625  19.3243446
  91.4317265  58.2169136  23.9531307  90.9779592  57.3760046  24.0096497
  90.8011232  58.8530534  24.2906087  90.3750185  49.1461122  25.1831974
  89.6372942  48.6338508  25.5142217  90.6276958  48.7061503  24.3715251
  89.8750204  60.0545633  24.8881125  90.1673179  60.6150690  24.1693491
  90.3848825  60.3474194  25.6434284  90.4761812  41.9237374  25.7773744
  90.7820689  41.0634737  25.4899659  91.2014417  42.5154994  25.5772738
  76.7686168  52.3268060  24.1655342  76.5710568  51.7337421  23.4406408
  76.2132832  52.0220271  24.8831280  84.7482892  52.2191167  26.2849935
  84.8031502  51.2665003  26.2092411  83.9374094  52.3750606  26.7691233
  85.8974086  56.1471290  17.5228218  85.4593516  55.4307149  17.0633855
  86.6384526  56.3747405  16.9613309  82.6875252  50.8368227  24.0440314
  81.8743117  51.1362397  24.4505506  83.1834246  50.4423915  24.7614796
  84.8383830  60.8325984  25.9774578  84.7960008  61.0586830  25.0483110
  85.7546528  60.5989358  26.1260380  88.2849463  51.3010051  32.8755208
  88.6398851  51.5281524  33.7349673  88.9321595  51.6328428  32.2532463
  94.0147200  54.4228487  23.5804537  93.8765099  54.6130083  22.6525726
  93.6583419  55.1847870  24.0372588  82.1789326  48.4086582  29.6601549
  82.8188706  48.2675341  28.9624512  81.3466857  48.1221096  29.2840151
  94.0416580  56.4905014  28.5915808  94.4753087  56.3980303  29.4398862
  94.7548161  56.4662515  27.9535824  82.9549630  57.7089013  25.7736541
  83.7490229  57.2139333  25.5719116  82.2441323  57.1806876  25.4104247
  87.7744475  60.0907108  30.1248909  87.8281497  60.6598044  30.8926625
  86.9059256  60.2608993  29.7602946  79.2632394  51.8532094  21.8496294
  78.3329982  51.7916550  22.0666256  79.3589866  51.3308047  21.0532935
  79.1817943  48.3786907  24.4374535  79.4424760  49.2932240  24.3283696
  80.0035115  47.9111350  24.5871148  80.6542868  49.7924664  31.6073360
  81.3265922  49.5842027  30.9586009  79.8272655  49.5946750  31.1678592
  94.9032130  56.5328715  31.1248693  95.0968020  57.4374525  31.3707968
  94.8032748  56.0736134  31.9587279  86.5568440  46.4186605  33.6239021
  85.9096355  47.1176555  33.5303497  87.3269456  46.8522749  33.9915269
  89.9647238  56.6835457  36.6989574  89.8132745  56.4546009  35.7819658
  89.9551918  57.6406059  36.7120919  86.7332575  54.2567370  31.6835841
  87.6624635  54.4078530  31.5104808  86.3123605  54.3451391  30.8284487
  85.5320906  58.2818035  29.4534378  85.3931992  57.9136819  30.3260316
  84.7435503  58.7965674  29.2818336  86.1269058  63.3827131  20.7959915
  86.3020814  62.9115174  21.6105537  85.4401846  64.0092897  21.0241175
  87.0826122  57.6599637  26.8423216  86.7475954  57.6200407  27.7380866
  86.5830067  56.9944353  26.3693626  81.0570366  53.0667267  32.3675797
  80.9190163  52.3347506  32.9687336  81.9675289  52.9776167  32.0859985
  90.0185313  55.0055672  17.1160276  89.4014484  54.2802500  17.0193328
  89.5501802  55.7665032  16.7727350  83.6852666  52.7787227  31.8559477
  84.3952285  52.1380419  31.8146095  83.6421974  53.0300122  32.7785658
  91.6739445  59.7154580  34.7766056  91.6151991  59.0313800  34.1096639
  92.0758963  60.4573570  34.3246682  82.3981600  49.7652445  33.6755116
  81.8618957  49.3143183  34.3276713  81.8098309  49.8998353  32.9325581
  80.6930144  66.5316494  27.5699775  80.9326742  67.1635018  28.2478793
  79.8499340  66.1804534  27.8565134  81.8083859  49.2241096  16.2381580
  80.9313325  49.1029897  15.8743827  82.2841612  48.4327174  15.9860469
  91.6756852  57.6794164  33.0080036  90.7883631  57.3420086  33.1306435
  92.2455403  56.9477195  33.2448801  73.3285999  54.0118256  26.3323087
  74.0157039  53.6979986  25.7444102  73.1734128  54.9159620  26.0590338
  78.1320721  48.9008452  30.7608111  78.0478910  48.2934122  30.0258521
  77.3103428  49.3917471  30.7617607  85.2058006  62.3395616  29.9741279
  85.1328177  63.1450588  30.4860583  84.7635399  62.5387582  29.1489300
  84.9947785  61.5767386  23.4844100  84.2115307  62.1189067  23.5782325
  85.6940530  62.0941366  23.8838342  88.3044435  47.3862016  26.1278306
  88.8013135  46.6331978  25.8079376  87.5331417  47.4226332  25.5621515
  96.1574193  53.0902381  27.7696597  96.1464069  53.9727097  27.3990530
  95.2891572  52.7373932  27.5751134  87.6656689  62.2382450  32.1299438
  88.3784661  62.8729915  32.0575339  87.1746718  62.3346316  31.3139439
  89.3874216  56.1433703  23.7016729  88.4530495  56.2635165  23.5321433
  89.5650884  55.2406170  23.4376739  84.8879404  49.5279399  25.8549990
  84.5177192  48.9750439  26.5430896  85.3838496  48.9237532  25.3024990
  92.7746767  51.9851022  24.2366763  93.2407219  52.8179014  24.1627066
  93.2254268  51.5196004  24.9412022  82.7168603  59.9876894  32.9505008
  83.4178062  60.6213377  33.1034403  82.2463718  60.3291625  32.1900648
  90.8422998  58.3294844  21.2352915  91.1182842  58.2151438  22.1446789
  89.9727497  57.9312328  21.1965088  90.7463430  44.3531609  28.2757665
  89.8326510  44.5835836  28.4439872  91.1756532  44.4370053  29.1271697
  90.5169889  52.5421501  30.7757559  89.8641339  52.7897409  30.1210011
  90.8950268  51.7285639  30.4420036  87.4777062  62.5781194  24.8785729
  87.6599457  61.7602850  25.3413481  88.3010048  62.7948887  24.4410619
  87.8119228  61.5049380  22.1400777  88.3406994  60.9941834  21.5270940
  88.0747447  61.1891910  23.0046310  86.5657462  53.2841312  37.2623596
  85.8898099  53.1835442  37.9325971  87.3885095  53.1280526  37.7259593
  78.3136321  59.5213249  29.8836111  78.8989757  58.7756937  30.0164015
  78.1161159  59.8317206  30.7672775  81.1674976  62.5564496  24.8998553
  80.4985351  63.0410624  24.4162593  81.0287846  62.8033717  25.8141932
  72.9053975  52.0918849  28.6040554  72.9438075  51.5582440  29.3977672
  72.3994268  51.5654055  27.9851531  85.3080244  64.5908240  31.4981212
  85.8598552  64.7539861  32.2630297  85.6486438  65.1812678  30.8261237
  80.2844738  46.9383390  32.1003096  80.3486064  47.7998220  31.6880494
  80.2211858  46.3257391  31.3675455  90.1591119  59.4169497  37.3529866
  90.7031023  60.0299456  36.8584821  89.5777964  59.9749076  37.8696879
  76.5362553  50.8182951  21.6794486  76.8315994  49.9093630  21.6261539
  75.6350589  50.7970691  21.3575488  88.4448632  62.5390215  28.4844894
  88.3199771  61.7379955  27.9755839  89.1027723  63.0336409  27.9958864
  80.0656800  48.8938948  27.6622034  79.3443386  49.5074916  27.5229507
  80.8550056  49.4296713  27.5838680  90.5083540  60.3399235  30.1124444
  89.5613876  60.2204587  30.0402771  90.8566313  59.4521733  30.1950705
  82.8683113  46.2293374  33.9362686  83.3917515  46.4755671  34.6988995
  82.6495447  47.0613409  33.5165823  78.2650395  48.4997049  21.8033811
  77.9363101  47.6194428  21.6208917  78.6189765  48.4444718  22.6910200
  87.5129973  60.1351952  26.3128796  87.3654936  59.2068659  26.4936366
  88.3383467  60.1572042  25.8285871  81.3792218  48.7870019  22.1709288
  81.7188290  49.3155940  21.4487897  81.8264338  49.1250425  22.9467855
  91.1164095  60.9580510  27.3993669  92.0410643  60.7523372  27.2618120
  90.9479399  60.7096911  28.3083010  84.0735659  47.1707069  31.6212356
  83.7332479  46.3714882  32.0233036  83.3674665  47.4708780  31.0489190
  84.7252130  44.2556382  30.0739679  85.5478200  43.7816860  29.9518570
  84.9690194  45.0346866  30.5738366  83.3660365  47.2844640  20.3702581
  84.0868727  47.6625893  19.8666298  82.7425669  48.0033517  20.4737559
  87.5091488  47.9889789  21.3060913  87.7255102  48.8714427  21.0049742
  87.0285555  47.5976003  20.5766555  82.2490709  50.9475502  27.8831658
  82.1035290  51.2615806  28.7755940  81.7715913  51.5660403  27.3302557
  84.1087092  47.9378050  27.9312548  84.0948661  47.0419144  27.5944846
  84.8259520  47.9448714  28.5650834  85.9613223  48.3715391  29.9765675
  85.7031001  49.2932461  29.9750005  85.4298263  47.9745825  30.6666139
  90.9059411  61.4766178  22.7555760  91.0796289  60.9112600  22.0029613
  91.3988303  62.2767073  22.5735250  76.7236371  53.4880847  30.8219319
  76.1789839  54.2640655  30.9539594  77.6015721  53.8351651  30.6638441
  83.5123988  46.8192431  23.2000118  83.6339899  45.8909077  23.3991005
  83.2226030  46.8331117  22.2878433  86.3815178  44.5047341  26.3366838
  86.4036875  44.5686674  25.3818817  86.7983237  43.6651850  26.5307344
  96.7598803  54.2402601  24.3746060  97.2029949  53.4909926  23.9765183
  95.8825313  54.2312737  23.9919792  91.8934584  60.7932942  19.8552659
  92.5885489  61.4139635  20.0739973  92.2357734  59.9428293  20.1305037
  77.5102393  52.6150743  33.7149476  76.7684129  52.7633378  34.3014107
  77.1895137  52.8759009  32.8516226  93.7926007  58.2432648  21.3839989
  94.3177331  58.5819920  20.6589310  93.7048360  57.3079663  21.2003124
  85.4546056  62.1566721  33.5129866  85.7633182  61.9115868  34.3852566
  86.2521538  62.3613360  33.0248736  85.4766668  64.3104631  25.7435243
  85.0371658  63.8181010  26.4368099  86.2274785  63.7677599  25.5027318
  77.9559007  60.5016172  25.7459871  78.7817027  60.2019944  25.3658514
  77.6053059  59.7323794  26.1949659  82.9240540  59.8542640  27.8157544
  82.3020549  59.1913345  27.5159772  83.5945407  59.8803772  27.1331192
  76.1567612  58.4202498  26.7048804  75.3199520  57.9924673  26.5232806
  76.1291257  58.6134942  27.6419596  82.9965067  48.3324428  37.4090050
  83.0453223  49.2086551  37.0267820  83.5387582  47.7901821  36.8361694
  93.4819913  58.8765551  36.6891187  92.6915457  58.8589690  36.1495687
  93.2453268  59.4153845  37.4440224  93.6017788  55.7258018  34.0023916
  93.6515793  55.5608025  34.9439439  93.4931712  54.8585277  33.6121797
  82.4854047  58.4046563  21.2916005  82.6342167  59.0882028  20.6382678
  83.2920490  58.3851653  21.8065461  90.8921551  51.7088946  35.3183223
  91.7931413  51.5695411  35.0267220  90.9669525  51.8743401  36.2581400
  85.2264356  49.0855801  34.1636409  84.3567665  49.3789367  33.8918998
  85.4623836  49.6696246  34.8843673  95.1035985  58.1454959  34.2465938
  94.8120793  58.5084940  35.0829398  94.4908116  57.4321968  34.0679270
  96.3031667  55.7107839  26.7668508  97.1378559  56.1497643  26.9306068
  96.4390796  55.2346492  25.9476754  93.3523173  53.2687574  32.7145996
  93.8277295  53.4615220  31.9064847  92.4288739  53.3246760  32.4689379
  80.2406680  54.4311741  22.2977074  79.9952722  53.5274071  22.4957284
  80.4102594  54.4328891  21.3556552  87.9303390  45.3035417  31.6801829
  88.4485334  46.0396444  31.3548318  87.5758523  45.6099411  32.5148589
  79.5102327  50.1640099  19.7963235  78.8171572  50.2384454  19.1403271
  79.2654079  49.4000442  20.3184752  88.1815984  41.7235700  27.2002726
  88.4617738  41.0558889  27.8263153  88.9666591  41.9164796  26.6877390
  85.9849452  60.8994694  18.7627752  85.4123419  61.5184881  18.3098224
  86.5582246  61.4494056  19.2967674  92.0524842  50.1453334  30.9474301
  93.0042265  50.2451432  30.9686525  91.8828293  49.3531603  31.4572385
  90.0739222  47.2308917  31.1333702  89.4789154  47.5113930  30.4380191
  89.7888918  47.7202818  31.9050443  89.2046712  61.1831844  19.8936335
  90.1377385  61.1177406  20.0969210  89.1169925  62.0188111  19.4350867
  91.8334729  60.4997714  16.8540282  91.7548360  60.1657578  17.7476040
  92.6544396  60.9919482  16.8531754  94.5312920  53.3659454  30.0616601
  94.4989240  52.4275454  30.2476285  95.1413544  53.4443490  29.3282426
  86.3696251  52.2355507  16.1043805  87.3155356  52.1061715  16.1732223
  85.9910496  51.4970169  16.5813233  94.6807409  50.1570497  30.1074884
  94.1646457  49.3728954  29.9204813  95.5647357  49.8289214  30.2721403
  92.3418135  43.9011513  26.0670697  92.1442957  43.5926601  26.9514029
  92.9517841  44.6273152  26.1968626 100.3489470  54.4275460  29.2022638
 101.0792858  54.1660749  29.7630341  99.7396415  53.6904182  29.2424706
  98.4304767  52.5683323  29.7997089  97.7037931  52.4339288  29.1913580
  98.0152054  52.8760152  30.6053807  86.2534943  56.2873253  37.5644462
  87.1737953  56.4651852  37.7584508  86.2184526  55.3429298  37.4124161
  84.5539168  50.1605483  16.0398690  83.6470623  49.8638596  16.1161404
  84.8315149  49.8635301  15.1732976  75.4717108  51.4811846  26.4897736
  75.1519893  50.6277155  26.1972110  74.9250537  51.6960425  27.2455704
  79.2497016  54.1974287  30.2067243  79.4683026  55.1291395  30.2255277
  79.6622790  53.8382262  30.9922047  86.1701234  44.7042373  22.1942931
  85.3601962  44.3589458  22.5698177  86.8585651  44.3949916  22.7830543
  88.0991782  43.7820420  23.8167228  88.6522821  44.2015873  24.4757251
  88.3361868  42.8556168  23.8590184  84.1224881  49.7707493  39.5969992
  84.0221608  50.7201850  39.5282083  83.9046423  49.4425732  38.7246062
  83.3237953  47.0192418  16.1810669  84.1857117  47.3447317  16.4406487
  83.5088297  46.2323914  15.6683735  75.3405368  55.1014758  28.4590858
  74.6468840  54.6868711  27.9460812  76.0878359  55.1435294  27.8624277
  91.4770589  45.8920945  23.3245892  90.8969258  46.5505749  22.9423945
  91.2106522  45.0698289  22.9133310  89.9274156  45.2926002  25.5267213
  90.4273934  45.4042537  24.7181531  90.5709763  44.9887055  26.1668021
  83.9856151  53.2004632  38.4135054  83.5023233  54.0004992  38.6198943
  84.0717090  53.2112577  37.4602498  77.2542111  55.0333012  26.3356873
  77.2312799  55.1320699  25.3838756  77.5642747  55.8798162  26.6574039
  79.9129489  57.0909167  30.4503487  80.8672742  57.0593109  30.3833419
  79.7142012  56.6299790  31.2653713  80.5028871  55.6610283  33.0174285
  81.3221760  56.1554361  33.0409122  80.7765679  54.7442251  32.9891852
  90.2595467  48.0521035  22.3802240  89.3721322  48.3370686  22.1622435
  90.6749456  47.8914798  21.5329517  93.6110003  48.0767556  26.0956580
  94.3870393  48.5664008  26.3681197  92.8858137  48.5025610  26.5528449
  96.0482562  48.7895175  27.1530520  96.6427053  48.5490911  26.4423829
  96.1209146  48.0702306  27.7804057  78.2679718  62.6328786  27.4673685
  78.1334186  61.8729187  26.9011683  77.8511780  63.3569686  27.0002474
  89.4038681  57.8165710  16.4750260  90.1074531  58.0215712  17.0907916
  88.6801329  58.3842472  16.7399344  90.2336491  53.5675571  22.5952531
  90.1771692  54.0244122  21.7560163  90.7864833  52.8066256  22.4175373
  94.0441297  49.3565303  23.4202650  93.7878231  48.9561939  24.2510858
  93.4194165  50.0709097  23.2952789  98.3553635  52.0961376  25.9273942
  97.7953193  52.1654565  26.7005504  97.7497138  51.9202361  25.2073438
  81.4248843  63.5298103  27.6792128  81.3081228  64.4743536  27.5770818
  80.6041290  63.2271665  28.0677927  91.3125378  58.2548239  18.5248721
  92.1470982  57.8229437  18.3426195  91.1509721  58.0830253  19.4525615
  90.9671270  54.7580352  19.8905060  90.9120074  54.5924624  18.9493504
  90.3417325  55.4656385  20.0467250  88.2817177  57.0629264  39.2158623
  89.1508337  57.2369916  38.8545258  87.8023929  57.8823681  39.0934352
  84.2767396  44.2588461  19.4690378  84.2646066  45.2030301  19.6258649
  85.1690818  44.0758607  19.1749839  82.4503358  64.1826365  30.8948056
  83.3530604  64.2149975  31.2114551  82.2240728  63.2526816  30.9094392
  84.2056960  62.9357352  27.5558135  83.2552591  62.9359213  27.4422507
  84.5089446  62.1890086  27.0394169  88.0919515  40.8531238  23.7236315
  87.3251911  40.2989725  23.8692997  88.5030220  40.9253107  24.5850467
  99.9409653  68.7717890  28.6203897 100.5788063  68.6524637  27.9167237
  99.8230496  69.7198734  28.6791849  96.7499359  68.7245318  28.5565422
  96.4117871  68.6086383  27.6685957  97.6189128  68.3236483  28.5366428
  92.6086175  70.5780795  24.5462313  92.0451040  70.4870732  23.7778601
  92.4938570  69.7580699  25.0264805  97.2319142  69.8780170  34.5151627
  97.2207783  69.4832968  33.6432131  97.3939782  69.1446242  35.1085399
  90.1550607  72.0731986  27.3846533  90.9471899  71.7322811  26.9692833
  90.3947257  72.1826961  28.3048687  98.1885734  74.2451762  19.8576778
  97.5373714  74.8305843  19.4710792  98.9830097  74.7757957  19.9171815
  92.1141361  71.3340899  20.2563912  92.8872237  70.7869887  20.1176788
  92.4666760  72.1985149  20.4678374  93.9526404  72.6617282  33.4630811
  93.6616270  73.5662913  33.3477478  94.5883388  72.7033809  34.1774881
  94.8782610  70.0394130  30.0532171  95.4746183  69.8150153  29.3389134
  94.9357582  69.2978876  30.6557619  94.4507639  67.4933566  17.8882362
  94.7033159  66.9715087  17.1265825  93.5132198  67.3299711  17.9909046
  99.4950922  66.4969344  25.6957105 100.2814011  66.0788767  25.3447522
  99.7589626  67.4015436  25.8638754  99.6660999  71.9342194  20.3945762
  99.0306832  72.0076821  21.1066667  99.3358405  72.5235793  19.7164841
 104.8959349  66.4344577  26.5990084 105.6284521  65.8643794  26.8327913
 104.1398704  66.0466178  27.0396589  94.1703928  69.3961671  20.0906737
  94.0540186  68.7206575  20.7587821  94.2806187  68.9094045  19.2738890
  96.5135468  68.8571819  23.7953426  96.1493676  68.3302440  24.5066348
  97.3702584  68.4670288  23.6219912 102.4184769  60.1466151  31.0584692
 102.0868094  61.0161562  30.8345907 101.8230382  59.8302435  31.7378723
  96.1540955  63.8861718  18.7914775  96.3215358  64.7541955  19.1585246
  95.9638125  64.0489000  17.8676064  98.9116289  72.3478697  30.4580605
  98.6117012  73.2503736  30.3496412  98.5667348  72.0810880  31.3101758
  92.3628770  68.7992494  26.4917310  91.4379267  68.6668708  26.6995001
  92.6113183  69.5786713  26.9887252 102.3113432  64.8661237  28.1378042
 101.4030310  64.7976646  27.8436803 102.2601028  65.3433182  28.9659868
  96.1330176  66.3419376  19.7761442  96.0129802  66.7876427  20.6146922
  95.4382765  66.6904693  19.2174980  89.7237581  68.4425768  27.3261099
  89.8529962  68.6960247  28.2400510  89.0435032  69.0353476  27.0065754
  93.8937068  79.1123018  23.4251573  93.8161098  80.0630843  23.5040053
  93.2898712  78.7668890  24.0826499  96.3854298  66.2850883  36.0812940
  95.6087632  66.8444803  36.0715804  97.0244861  66.7707666  36.6027810
 104.1775079  63.0677676  29.9155916 103.5349459  63.3610209  29.2695711
 103.6730007  62.9530596  30.7209113 101.8315242  66.8140849  20.6041776
 102.7433099  67.0468236  20.4289473 101.3224890  67.3977893  20.0416854
  94.6400670  69.0936336  35.6430907  95.3815355  69.6321380  35.3665730
  93.9337656  69.7202625  35.8002459 100.1156010  71.2365477  34.2403068
 100.5239366  70.7947887  33.4957701  99.3933272  70.6618104  34.4937261
  96.4687080  66.1738084  31.6136625  97.3148275  66.5977497  31.7571274
  96.4085718  65.5171708  32.3075188 100.4384825  71.7966667  27.9955357
  99.8093687  71.9612382  27.2931425 100.0510487  72.2108277  28.7666321
 104.3174057  72.7321105  25.3499721 103.6325095  73.1120007  24.7996754
 104.4017906  73.3416432  26.0831669  99.6186526  63.8342452  33.2717799
  99.3747457  64.5884512  32.7352075  99.8946456  64.2127800  34.1065046
 101.5724988  70.3781064  31.9495064 101.7841884  71.0212824  31.2729445
 101.5254737  69.5443381  31.4816994  99.1751217  62.9898885  28.8531637
  98.3135696  63.2880139  29.1448374  99.2013652  63.2069284  27.9212669
  95.9912787  71.5341076  25.2605442  96.4551132  71.8128778  24.4710065
  95.7269585  70.6324520  25.0778533  92.8836868  71.0812557  28.1985205
  93.4538225  71.5099825  27.5602690  93.4744980  70.7995142  28.8969391
  94.9281673  67.6564228  22.0695007  95.6305716  68.1085272  22.5368934
  94.5962301  67.0148047  22.6974900  93.3762034  66.2475985  36.4446217
  92.7460695  66.9292265  36.6781614  93.2698122  66.1359066  35.4999355
  88.6707007  65.9147781  27.3712141  87.8806061  66.1705309  26.8952252
  89.1618254  66.7296118  27.4764181 102.6870816  73.2553020  30.1217422
 103.5088260  72.8533207  29.8400103 102.6833219  73.1521254  31.0733538
  90.6221752  66.2792360  24.3295618  89.8252915  66.3911054  24.8479113
  90.3947344  66.6179012  23.4636508  96.4527420  72.8037063  32.2778132
  96.5171852  73.2657470  33.1136304  95.7438344  72.1734428  32.4060442
  86.9544710  66.1678271  29.8027132  87.2052748  67.0525281  30.0684708
  87.4904258  65.9882873  29.0302224  96.1675437  74.4705171  22.1457113
  96.0321112  75.3156706  22.5741960  96.7085250  74.6724448  21.3823046
  92.6542777  60.5496750  38.8071468  92.2609723  59.9962949  39.4819112
  93.4708917  60.8607329  39.1977985  89.6204835  71.9880609  22.7185038
  90.1329355  72.7823859  22.8690602  90.2727548  71.2906899  22.6518639
  91.4299719  75.1046365  24.8007791  91.6066348  76.0264330  24.6128775
  92.2256553  74.7904784  25.2302171  95.5710738  61.9654629  36.3991724
  96.3120451  62.5661783  36.3196187  95.8028661  61.2232267  35.8409767
  90.7152076  67.1510997  34.6769954  90.6005591  66.2496254  34.9777053
  89.8596594  67.3974693  34.3254771  97.7943914  75.0928737  36.2757455
  97.3507768  74.3065116  35.9578359  98.4561127  75.2807888  35.6101345
  92.5531035  76.6224539  30.8018133  93.1038460  76.4941602  30.0295127
  91.7142511  76.9219428  30.4513026  99.8925152  75.3731537  34.3038856
  99.8743627  76.1940418  33.8119125 100.8145072  75.2485612  34.5288997
  96.3498206  72.8875666  35.1462364  96.8826543  72.1263955  34.9161672
  95.8212287  72.5949318  35.8886519  99.5167901  57.9935732  30.6756006
  99.1732170  58.8837374  30.5995117  99.8846864  57.8037390  29.8125591
  87.5853752  70.3169263  23.4944608  88.4228974  70.7266271  23.2778316
  87.7632019  69.3768705  23.4644802  99.4818184  67.9844343  19.1828441
  98.9664807  68.7548948  19.4216829  99.2095492  67.3109480  19.8061503
  97.0665295  62.8294044  24.2413680  96.2106891  62.4400895  24.0619318
  97.4792246  62.9086005  23.3813465  98.5964441  60.3640388  28.6405239
  98.0929237  60.3270523  27.8273045  98.8895048  61.2733130  28.7001896
  94.8407327  60.4479117  27.6471421  95.7060324  60.2521926  27.2877310
  94.9084836  60.2189469  28.5740778 104.4552458  70.7376698  21.1181615
 103.6781901  70.3987858  20.6736777 105.1343939  70.7429321  20.4436580
  99.2704487  65.8571436  21.0088222  98.9654622  66.1717585  21.8598366
 100.2234929  65.9352855  21.0515555  97.7150919  72.0161659  22.6581176
  97.1872280  71.2814418  22.3454414  97.2138421  72.7936335  22.4121145
 102.6943765  70.2110679  27.7748223 102.0367439  70.9009941  27.8628351
 103.4984164  70.6007111  28.1182209  92.4469646  62.6781325  25.0187788
  93.0213398  62.4556507  24.2860981  93.0340629  62.7470020  25.7716389
 101.5049223  68.5655052  25.8252164 102.0181105  69.1985044  26.3273874
 102.1550447  67.9656248  25.4595524  92.7739233  64.7085786  19.0383673
  91.9376546  65.0460473  19.3592948  92.6344003  64.5734766  18.1010810
  94.7492314  59.5522574  23.7462857  94.0956726  59.2371591  23.1219472
  94.7072788  58.9298315  24.4722680  95.8603519  69.8341869  15.6616149
  94.9530581  69.6031123  15.8607298  96.3574551  69.0379488  15.8490131
  97.9830054  66.0404508  28.0710505  97.0652616  66.2619455  27.9132193
  98.3990198  66.1150818  27.2122212  98.7665102  67.4395923  23.2013185
  99.5136921  67.9517321  22.8920307  99.0356692  67.1179976  24.0617579
  97.0391752  69.9354464  20.1840139  96.1302972  69.6513497  20.2812609
  97.0686836  70.3553543  19.3243446 102.2711020  73.5461054  23.9531307
 101.8173347  72.7051963  24.0096497 101.6404986  74.1822452  24.2906087
 101.2143939  64.4753040  25.1831974 100.4766696  63.9630426  25.5142217
 101.4670713  64.0353421  24.3715251 100.7143959  75.3837550  24.8881125
 101.0066933  75.9442607  24.1693491 101.2242579  75.6766111  25.6434284
 101.3155567  57.2529292  25.7773744 101.6214443  56.3926655  25.4899659
 102.0408171  57.8446912  25.5772738  87.6079923  67.6559978  24.1655342
  87.4104322  67.0629339  23.4406408  87.0526587  67.3512188  24.8831280
  95.5876646  67.5483085  26.2849935  95.6425256  66.5956921  26.2092411
  94.7767848  67.7042524  26.7691233  93.5269006  66.1660144  24.0440314
  92.7136872  66.4654315  24.4505506  94.0228000  65.7715833  24.7614796
  95.6777584  76.1617901  25.9774578  95.6353763  76.3878748  25.0483110
  96.5940283  75.9281276  26.1260380  99.1243218  66.6301969  32.8755208
  99.4792606  66.8573442  33.7349673  99.7715349  66.9620346  32.2532463
 104.8540955  69.7520405  23.5804537 104.7158853  69.9422001  22.6525726
 104.4977174  70.5139788  24.0372588  93.0183081  63.7378500  29.6601549
  93.6582460  63.5967259  28.9624512  92.1860612  63.4513013  29.2840151
 104.8810334  71.8196932  28.5915808 105.3146841  71.7272221  29.4398862
 105.5941915  71.7954432  27.9535824  93.7943385  73.0380930  25.7736541
  94.5883983  72.5431250  25.5719116  93.0835077  72.5098793  25.4104247
  98.6138229  75.4199026  30.1248909  98.6675252  75.9889962  30.8926625
  97.7453011  75.5900911  29.7602946  90.1026148  67.1824012  21.8496294
  89.1723736  67.1208468  22.0666256  90.1983620  66.6599965  21.0532935
  90.0211697  63.7078825  24.4374535  90.2818515  64.6224158  24.3283696
  90.8428870  63.2403267  24.5871148  91.4936623  65.1216582  31.6073360
  92.1659676  64.9133944  30.9586009  90.6666409  64.9238668  31.1678592
 105.7425884  71.8620632  31.1248693 105.9361774  72.7666443  31.3707968
 105.6426502  71.4028051  31.9587279  97.3962195  61.7478523  33.6239021
  96.7490110  62.4468473  33.5303497  98.1663210  62.1814667  33.9915269
 100.8040993  72.0127375  36.6989574 100.6526499  71.7837927  35.7819658
 100.7945672  72.9697977  36.7120919  97.5726329  69.5859288  31.6835841
  98.5018389  69.7370448  31.5104808  97.1517359  69.6743309  30.8284487
  96.3714661  73.6109952  29.4534378  96.2325747  73.2428737  30.3260316
  95.5829257  74.1257592  29.2818336  97.9219876  72.9891555  26.8423216
  97.5869709  72.9492325  27.7380866  97.4223822  72.3236271  26.3693626
  91.8964120  68.3959185  32.3675797  91.7583918  67.6639424  32.9687336
  92.8069043  68.3068085  32.0859985  94.5246421  68.1079144  31.8559477
  95.2346039  67.4672337  31.8146095  94.4815729  68.3592039  32.7785658
 102.5133199  75.0446498  34.7766056 102.4545745  74.3605718  34.1096639
 102.9152718  75.7865488  34.3246682  93.2375355  65.0944362  33.6755116
  92.7012712  64.6435101  34.3276713  92.6492063  65.2290271  32.9325581
  91.5323898  81.8608412  27.5699775  91.7720496  82.4926936  28.2478793
  90.6893095  81.5096452  27.8565134  92.6477614  64.5533014  16.2381580
  91.7707080  64.4321814  15.8743827  93.1235367  63.7619092  15.9860469
 102.5150607  73.0086082  33.0080036 101.6277385  72.6712003  33.1306435
 103.0849158  72.2769113  33.2448801  84.1679754  69.3410173  26.3323087
  84.8550794  69.0271903  25.7444102  84.0127882  70.2451538  26.0590338
  88.9714476  64.2300370  30.7608111  88.8872665  63.6226039  30.0258521
  88.1497182  64.7209388  30.7617607  96.0451760  77.6687534  29.9741279
  95.9721931  78.4742505  30.4860583  95.6029153  77.8679500  29.1489300
  95.8341540  76.9059304  23.4844100  95.0509062  77.4480984  23.5782325
  96.5334285  77.4233284  23.8838342  99.1438190  62.7153933  26.1278306
  99.6406889  61.9623896  25.8079376  98.3725171  62.7518250  25.5621515
  98.5050444  77.5674368  32.1299438  99.2178416  78.2021833  32.0575339
  98.0140472  77.6638234  31.3139439 100.2267970  71.4725621  23.7016729
  99.2924249  71.5927083  23.5321433 100.4044639  70.5698087  23.4376739
  95.7273158  64.8571316  25.8549990  95.3570946  64.3042357  26.5430896
  96.2232251  64.2529450  25.3024990 103.6140522  67.3142940  24.2366763
 104.0800974  68.1470932  24.1627066 104.0648022  66.8487922  24.9412022
  93.5562357  75.3168811  32.9505008  94.2571817  75.9505294  33.1034403
  93.0857472  75.6583543  32.1900648 101.6816753  73.6586761  21.2352915
 101.9576597  73.5443356  22.1446789 100.8121252  73.2604246  21.1965088
 101.5857185  59.6823527  28.2757665 100.6720264  59.9127754  28.4439872
 102.0150286  59.7661971  29.1271697 101.3563643  67.8713419  30.7757559
 100.7035093  68.1189326  30.1210011 101.7344023  67.0577557  30.4420036
  98.3170817  77.9073112  24.8785729  98.4993211  77.0894768  25.3413481
  99.1403803  78.1240804  24.4410619  98.6512982  76.8341297  22.1400777
  99.1800749  76.3233752  21.5270940  98.9141202  76.5183827  23.0046310
  97.4051216  68.6133230  37.2623596  96.7291853  68.5127359  37.9325971
  98.2278850  68.4572444  37.7259593  89.1530075  74.8505167  29.8836111
  89.7383512  74.1048854  30.0164015  88.9554914  75.1609123  30.7672775
  92.0068730  77.8856414  24.8998553  91.3379106  78.3702542  24.4162593
  91.8681600  78.1325634  25.8141932  83.7447730  67.4210767  28.6040554
  83.7831829  66.8874357  29.3977672  83.2388023  66.8945972  27.9851531
  96.1473999  79.9200157  31.4981212  96.6992307  80.0831779  32.2630297
  96.4880192  80.5104595  30.8261237  91.1238492  62.2675307  32.1003096
  91.1879819  63.1290138  31.6880494  91.0605612  61.6549309  31.3675455
  90.5990765  64.3398440  35.7476131  91.2262803  63.9575517  36.3613655
  89.7418684  64.1212642  36.1131823 100.9984873  74.7461415  37.3529866
 101.5424777  75.3591373  36.8584821 100.4171718  75.3040993  37.8696879
  87.3756307  66.1474869  21.6794486  87.6709749  65.2385547  21.6261539
  86.4744343  66.1262608  21.3575488  99.2842386  77.8682133  28.4844894
  99.1593526  77.0671873  27.9755839  99.9421477  78.3628326  27.9958864
  90.9050554  64.2230865  27.6622034  90.1837140  64.8366833  27.5229507
  91.6943810  64.7588630  27.5838680 101.3477295  75.6691153  30.1124444
 100.4007630  75.5496504  30.0402771 101.6960068  74.7813651  30.1950705
  93.7076868  61.5585292  33.9362686  94.2311270  61.8047589  34.6988995
  93.4889201  62.3905327  33.5165823  89.1044149  63.8288967  21.8033811
  88.7756855  62.9486345  21.6208917  89.4583520  63.7736635  22.6910200
  98.3523728  75.4643869  26.3128796  98.2048690  74.5360577  26.4936366
  99.1777221  75.4863960  25.8285871  92.2185972  64.1161936  22.1709288
  92.5582045  64.6447858  21.4487897  92.6658093  64.4542342  22.9467855
 101.9557850  76.2872428  27.3993669 102.8804397  76.0815289  27.2618120
 101.7873153  76.0388829  28.3083010  94.9129413  62.4998987  31.6212356
  94.5726233  61.7006800  32.0233036  94.2068419  62.8000698  31.0489190
  95.5645885  59.5848299  30.0739679  96.3871954  59.1108778  29.9518570
  95.8083948  60.3638783  30.5738366  94.2054119  62.6136558  20.3702581
  94.9262482  62.9917811  19.8666298  93.5819423  63.3325435  20.4737559
  98.3485242  63.3181707  21.3060913  98.5648857  64.2006345  21.0049742
  97.8679309  62.9267920  20.5766555  93.0884464  66.2767420  27.8831658
  92.9429044  66.5907723  28.7755940  92.6109667  66.8952320  27.3302557
  94.9480846  63.2669968  27.9312548  94.9342415  62.3711061  27.5944846
  95.6653275  63.2740632  28.5650834  96.8006977  63.7007308  29.9765675
  96.5424755  64.6224379  29.9750005  96.2692018  63.3037743  30.6666139
 101.7453166  76.8058095  22.7555760 101.9190043  76.2404518  22.0029613
 102.2382057  77.6058990  22.5735250  87.5630126  68.8172765  30.8219319
  87.0183594  69.5932572  30.9539594  88.4409476  69.1643569  30.6638441
  94.3517742  62.1484348  23.2000118  94.4733654  61.2200995  23.3991005
  94.0619785  62.1623034  22.2878433  97.2208933  59.8339259  26.3366838
  97.2430630  59.8978592  25.3818817  97.6376992  58.9943767  26.5307344
  88.3496148  67.9442661  33.7149476  87.6077884  68.0925296  34.3014107
  88.0288892  68.2050926  32.8516226  96.2939810  77.4858639  33.5129866
  96.6026937  77.2407786  34.3852566  97.0915292  77.6905277  33.0248736
  96.3160422  79.6396549  25.7435243  95.8765413  79.1472927  26.4368099
  97.0668539  79.0969516  25.5027318  88.7952761  75.8308090  25.7459871
  89.6210781  75.5311861  25.3658514  88.4446813  75.0615712  26.1949659
  93.7634294  75.1834558  27.8157544  93.1414304  74.5205263  27.5159772
  94.4339161  75.2095690  27.1331192  86.9961366  73.7494416  26.7048804
  86.1593275  73.3216590  26.5232806  86.9685012  73.9426859  27.6419596
  93.8358822  63.6616346  37.4090050  93.8846977  64.5378469  37.0267820
  94.3781336  63.1193739  36.8361694 104.3213668  74.2057469  36.6891187
 103.5309211  74.1881608  36.1495687 104.0847022  74.7445763  37.4440224
 104.4411543  71.0549935  34.0023916 104.4909548  70.8899943  34.9439439
 104.3325466  70.1877194  33.6121797  93.3247801  73.7338481  21.2916005
  93.4735922  74.4173945  20.6382678  94.1314245  73.7143571  21.8065461
 101.7315305  67.0380863  35.3183223 102.6325168  66.8987328  35.0267220
 101.8063280  67.2035318  36.2581400  96.0658110  64.4147718  34.1636409
  95.1961420  64.7081284  33.8918998  96.3017591  64.9988163  34.8843673
 105.9429739  73.4746877  34.2465938 105.6514548  73.8376857  35.0829398
 105.3301871  72.7613885  34.0679270 104.1916928  68.5979492  32.7145996
 104.6671049  68.7907138  31.9064847 103.2682493  68.6538677  32.4689379
  91.0800434  69.7603659  22.2977074  90.8346476  68.8565989  22.4957284
  91.2496349  69.7620809  21.3556552  98.7697144  60.6327335  31.6801829
  99.2879088  61.3688362  31.3548318  98.4152277  60.9391328  32.5148589
  90.3496082  65.4932016  19.7963235  89.6565327  65.5676371  19.1403271
  90.1047834  64.7292360  20.3184752  99.0209738  57.0527618  27.2002726
  99.3011492  56.3850807  27.8263153  99.8060345  57.2456713  26.6877390
 102.8918597  65.4745252  30.9474301 103.8436020  65.5743349  30.9686525
 102.7222047  64.6823520  31.4572385 100.9132976  62.5600835  31.1333702
 100.3182908  62.8405848  30.4380191 100.6282673  63.0494736  31.9050443
 105.3706675  68.6951371  30.0616601 105.3382995  67.7567372  30.2476285
 105.9807298  68.7735408  29.3282426  97.2090005  67.5647424  16.1043805
  98.1549110  67.4353632  16.1732223  96.8304250  66.8262086  16.5813233
 105.5201163  65.4862415  30.1074884 105.0040212  64.7020871  29.9204813
 106.4041112  65.1581131  30.2721403 103.1811890  59.2303430  26.0670697
 102.9836711  58.9218519  26.9514029 103.7911596  59.9565069  26.1968626
  97.0928698  71.6165170  37.5644462  98.0131707  71.7943769  37.7584508
  97.0578281  70.6721216  37.4124161  95.3932923  65.4897401  16.0398690
  94.4864378  65.1930513  16.1161404  95.6708904  65.1927219  15.1732976
  86.3110863  66.8103764  26.4897736  85.9913647  65.9569072  26.1972110
  85.7644291  67.0252342  27.2455704  90.0890770  69.5266205  30.2067243
  90.3076780  70.4583313  30.2255277  90.5016544  69.1674179  30.9922047
  97.0094988  60.0334290  22.1942931  96.1995717  59.6881375  22.5698177
  97.6979405  59.7241834  22.7830543  98.9385537  59.1112337  23.8167228
  99.4916575  59.5307791  24.4757251  99.1755623  58.1848085  23.8590184
  94.9618636  65.0999411  39.5969992  94.8615363  66.0493768  39.5282083
  94.7440178  64.7717650  38.7246062  94.1631707  62.3484336  16.1810669
  95.0250871  62.6739234  16.4406487  94.3482051  61.5615832  15.6683735
  86.1799123  70.4306676  28.4590858  85.4862594  70.0160628  27.9460812
  86.9272114  70.4727212  27.8624277 102.3164344  61.2212862  23.3245892
 101.7363013  61.8797666  22.9423945 102.0500276  60.3990207  22.9133310
 100.7667910  60.6217920  25.5267213 101.2667688  60.7334455  24.7181531
 101.4103518  60.3178973  26.1668021  94.8249906  68.5296550  38.4135054
  94.3416988  69.3296910  38.6198943  94.9110845  68.5404495  37.4602498
  88.0935865  70.3624929  26.3356873  88.0706554  70.4612617  25.3838756
  88.4036502  71.2090080  26.6574039  90.7523243  72.4201084  30.4503487
  91.7066497  72.3885027  30.3833419  90.5535767  71.9591708  31.2653713
  91.3422625  70.9902200  33.0174285  92.1615514  71.4846279  33.0409122
  91.6159433  70.0734169  32.9891852 101.0989222  63.3812953  22.3802240
 100.2115077  63.6662603  22.1622435 101.5143211  63.2206716  21.5329517
 104.4503758  63.4059474  26.0956580 105.2264148  63.8955926  26.3681197
 103.7251892  63.8317528  26.5528449  89.1073472  77.9620704  27.4673685
  88.9727940  77.2021105  26.9011683  88.6905534  78.6861604  27.0002474
 101.0730245  68.8967489  22.5952531 101.0165447  69.3536040  21.7560163
 101.6258588  68.1358173  22.4175373 104.8835051  64.6857221  23.4202650
 104.6271986  64.2853856  24.2510858 104.2587919  65.4001014  23.2952789
  92.2642598  78.8590021  27.6792128  92.1474982  79.8035453  27.5770818
  91.4435044  78.5563582  28.0677927 101.8065025  70.0872270  19.8905060
 101.7513828  69.9216541  18.9493504 101.1811080  70.7948303  20.0467250
  86.5957540  65.3240334  33.7166482  87.2416403  64.8139288  34.2053707
  86.3874691  66.0609016  34.2909907  99.1210932  72.3921182  39.2158623
  99.9902092  72.5661834  38.8545258  98.6417683  73.2115599  39.0934352
  95.1161150  59.5880379  19.4690378  95.1039820  60.5322219  19.6258649
  96.0084572  59.4050524  19.1749839  93.2897112  79.5118283  30.8948056
  94.1924359  79.5441893  31.2114551  93.0634482  78.5818734  30.9094392
  95.0450714  78.2649269  27.5558135  94.0946345  78.2651131  27.4422507
  95.3483200  77.5182004  27.0394169  98.9313270  56.1823156  23.7236315
  98.1645665  55.6281642  23.8692997  99.3423975  56.2545024  24.5850467
  90.9355031  62.4707951  37.8141496  91.7986492  62.1144756  38.0244821
  90.3620441  62.1321846  38.5016901 104.7920158  87.9909199  33.4630811
 104.5010024  88.8954830  33.3477478 105.4277142  88.0325727  34.1774881
 105.7176365  85.3686048  30.0532171 106.3139937  85.1442070  29.3389134
 105.7751336  84.6270793  30.6557619 100.5631336  83.7717685  27.3261099
 100.6923717  84.0252164  28.2400510  99.8828787  84.3645393  27.0065754
 105.4794425  84.4228254  35.6430907 106.2209109  84.9613298  35.3665730
 104.7731410  85.0494543  35.8002459 104.2155789  81.5767902  36.4446217
 103.5854449  82.2584183  36.6781614 104.1091877  81.4650984  35.4999355
  99.5100761  81.2439698  27.3712141  98.7199815  81.4997227  26.8952252
 100.0012009  82.0588036  27.4764181  97.7938464  81.4970189  29.8027132
  98.0446503  82.3817199  30.0684708  98.3298013  81.3174790  29.0302224
 103.4936531  75.8788668  38.8071468 103.1003477  75.3254867  39.4819112
 104.3102672  76.1899247  39.1977985 101.5545830  82.4802914  34.6769954
 101.4399346  81.5788172  34.9777053 100.6990348  82.7266611  34.3254771
 105.6801082  75.7771035  27.6471421 106.5454078  75.5813844  27.2877310
 105.7478591  75.5481387  28.5740778 103.2863401  78.0073243  25.0187788
 103.8607153  77.7848424  24.2860981 103.8734383  78.0761937  25.7716389
 105.5886068  74.8814492  23.7462857 104.9350481  74.5663509  23.1219472
 105.5466543  74.2590232  24.4722680 103.8576835  79.0670418  29.6601549
 104.4976215  78.9259177  28.9624512 103.0254366  78.7804931  29.2840151
 100.8605452  79.0370743  24.4374535 101.1212269  79.9516076  24.3283696
 101.6822624  78.5695185  24.5871148 102.3330377  80.4508500  31.6073360
 103.0053431  80.2425862  30.9586009 101.5060164  80.2530586  31.1678592
 102.7357874  83.7251103  32.3675797 102.5977672  82.9931342  32.9687336
 103.6462798  83.6360003  32.0859985 105.3640175  83.4371062  31.8559477
 106.0739794  82.7964254  31.8146095 105.3209483  83.6883957  32.7785658
 104.0769109  80.4236280  33.6755116 103.5406466  79.9727018  34.3276713
 103.4885818  80.5582189  32.9325581  95.0073508  84.6702091  26.3323087
  95.6944548  84.3563821  25.7444102  94.8521637  85.5743456  26.0590338
  99.8108230  79.5592288  30.7608111  99.7266419  78.9517957  30.0258521
  98.9890937  80.0501306  30.7617607 104.3956112  90.6460729  32.9505008
 105.0965571  91.2797212  33.1034403 103.9251227  90.9875461  32.1900648
  99.9923830  90.1797084  29.8836111 100.5777266  89.4340772  30.0164015
  99.7948668  90.4901041  30.7672775  94.5841484  82.7502684  28.6040554
  94.6225584  82.2166275  29.3977672  94.0781777  82.2237890  27.9851531
 101.9632247  77.5967225  32.1003096 102.0273573  78.4582056  31.6880494
 101.8999367  76.9841227  31.3675455 101.4384519  79.6690357  35.7476131
 102.0656558  79.2867435  36.3613655 100.5812438  79.4504559  36.1131823
 101.7444309  79.5522783  27.6622034 101.0230895  80.1658751  27.5229507
 102.5337565  80.0880548  27.5838680 104.5470622  76.8877210  33.9362686
 105.0705024  77.1339506  34.6988995 104.3282956  77.7197244  33.5165823
 105.7523167  77.8290905  31.6212356 105.4119988  77.0298718  32.0233036
 105.0462174  78.1292616  31.0489190 103.9278218  81.6059338  27.8831658
 103.7822799  81.9199641  28.7755940 103.4503422  82.2244238  27.3302557
 105.7874601  78.5961886  27.9312548 105.7736170  77.7002979  27.5944846
 106.5047029  78.6032550  28.5650834  98.4023880  84.1464682  30.8219319
  97.8577348  84.9224490  30.9539594  99.2803230  84.4935487  30.6638441
  99.1889902  83.2734578  33.7149476  98.4471638  83.4217214  34.3014107
  98.8682646  83.5342844  32.8516226 104.6752576  78.9908263  37.4090050
 104.7240732  79.8670386  37.0267820 105.2175091  78.4485656  36.8361694
  97.1504617  82.1395682  26.4897736  96.8307402  81.2860990  26.1972110
  96.6038046  82.3544260  27.2455704 100.9284525  84.8558123  30.2067243
 101.1470535  85.7875231  30.2255277 101.3410299  84.4966097  30.9922047
 105.8012390  80.4291329  39.5969992 105.7009117  81.3785685  39.5282083
 105.5833932  80.1009567  38.7246062  97.0192877  85.7598593  28.4590858
  96.3256349  85.3452546  27.9460812  97.7665868  85.8019130  27.8624277
 105.6643660  83.8588467  38.4135054 105.1810742  84.6588827  38.6198943
 105.7504599  83.8696412  37.4602498 101.5916998  87.7493002  30.4503487
 102.5460251  87.7176944  30.3833419 101.3929521  87.2883626  31.2653713
 102.1816380  86.3194118  33.0174285 103.0009269  86.8138197  33.0409122
 102.4553188  85.4026086  32.9891852  97.4351294  80.6532252  33.7166482
  98.0810158  80.1431206  34.2053707  97.2268445  81.3900934  34.2909907
 101.7748785  77.7999869  37.8141496 102.6380247  77.4436674  38.0244821
 101.2014196  77.4613764  38.5016901  61.4345141   3.6803651  20.1876118
  61.1435007   4.5849282  20.0722784  62.0702126   3.7220179  20.9020188
  62.3601348   1.0580500  16.7777478  62.9564920   0.8336522  16.0634441
  62.4176320   0.3165245  17.3802926  66.3935026   3.3665067  17.1825912
  66.0935749   4.2690106  17.0741719  66.0486086   3.0997250  18.0347065
  67.9203563   2.8153037  14.7200664  67.2912425   2.9798751  14.0176732
  67.5329225   3.2294647  15.4911628  71.7992794   3.7507475  12.0745028
  71.1143833   4.1306376  11.5242061  71.8836644   4.3602801  12.8076975
  70.1689554   4.2739389  16.8462728  70.9906998   3.8719577  16.5645410
  70.1651957   4.1707623  17.7978844  63.9346157   3.8223433  19.0023439
  63.9990590   4.2843840  19.8381611  63.2257081   3.1920797  19.1305749
  65.2762652   6.1115107  23.0002761  64.8326506   5.3251485  22.6823666
  65.9379865   6.2994257  22.3346652  60.0349773   7.6410908  17.5263440
  60.5857198   7.5127972  16.7540434  59.1961249   7.9405797  17.1758333
  67.3743890   6.3917907  21.0284163  67.3562365   7.2126788  20.5364432
  68.2963810   6.2671982  21.2534304  63.8316944   3.9062036  21.8707671
  64.3645281   3.1450324  21.6406979  63.3031025   3.6135688  22.6131825
  68.1962697   6.4023920  11.6126432  68.4885671   6.9628977  10.8938797
  68.7061317   6.6952481  12.3679591  63.1596322   7.1804271  12.7019885
  63.1172501   7.4065117  11.7728417  64.0759021   6.9467645  12.8505686
  66.0956967   6.4385395  16.8494215  66.1493989   7.0076332  17.6171931
  65.2271749   6.6087280  16.4848252  68.2859730   3.0313745  23.4234881
  68.1345237   2.8024296  22.5064964  68.2764410   3.9884346  23.4366226
  63.8533399   4.6296322  16.1779685  63.7144484   4.2615106  17.0505623
  63.0647995   5.1443961  16.0063643  65.4038614   4.0077925  13.5668523
  65.0688446   3.9678695  14.4626172  64.9042559   3.3422640  13.0938933
  69.9951937   6.0632867  21.5011363  69.9364483   5.3792087  20.8341946
  70.3971456   6.8051857  21.0491989  59.0142636  12.8794781  14.2945082
  59.2539234  13.5113305  14.9724100  58.1711832  12.5282821  14.5810441
  69.9969344   4.0272451  19.7325342  69.1096123   3.6898373  19.8551741
  70.5667895   3.2955482  19.9694108  63.5270498   8.6873904  16.6986585
  63.4540669   9.4928875  17.2105890  63.0847891   8.8865869  15.8734607
  65.9869181   8.5860738  18.8544744  66.6997154   9.2208202  18.7820646
  65.4959210   8.6824604  18.0384746  61.0381095   6.3355181  19.6750315
  61.7390554   6.9691664  19.8279709  60.5676210   6.6769913  18.9145954
  65.7989555   8.9259482  11.6031036  65.9811949   8.1081138  12.0658788
  66.6222541   9.1427174  11.1655926  56.6348813   5.8691536  16.6081418
  57.2202250   5.1235224  16.7409322  56.4373651   6.1795493  17.4918082
  63.6292737  10.9386527  18.2226518  64.1811045  11.1018149  18.9875604
  63.9698930  11.5290965  17.5506543  68.4803611   5.7647785  24.0775173
  69.0243515   6.3777743  23.5830128  67.8990456   6.3227363  24.5942186
  66.7661124   8.8868503  15.2090201  66.6412263   8.0858242  14.7001146
  67.4240215   9.3814696  14.7204171  68.8296032   6.6877523  16.8369751
  67.8826368   6.5682874  16.7648077  69.1778805   5.8000021  16.9196012
  65.8342466   6.4830239  13.0374103  65.6867428   5.5546946  13.2181673
  66.6595959   6.5050330  12.5531178  69.4376588   7.3058798  14.1238976
  70.3623135   7.1001659  13.9863427  69.2691891   7.0575199  15.0328317
  55.8314885  -1.0370970  20.4394783  55.0896621  -0.8888334  21.0259413
  55.5107630  -0.7762704  19.5761532  63.7758548   8.5045009  20.2375173
  64.0845674   8.2594155  21.1097872  64.5734030   8.7091647  19.7494043
  63.7979160  10.6582918  12.4680549  63.3584150  10.1659297  13.1613406
  64.5487277  10.1155886  12.2272625  61.2453032   6.2020927  14.5402851
  60.6233042   5.5391632  14.2405079  61.9157899   6.2282059  13.8576499
  71.8032405   5.2243839  23.4136494  71.0127949   5.2067977  22.8740993
  71.5665760   5.7632132  24.1685531  64.5747436   2.6351540  24.2889768
  65.4950445   2.8130139  24.4829815  64.5397019   1.6907585  24.1369468
  58.2341981   3.4387454  17.1748794  59.1885235   3.4071396  17.1078726
  58.0354505   2.9778078  17.9899020  58.8241363   2.0088570  19.7419592
  59.6434252   2.5032649  19.7654429  59.0978171   1.0920538  19.7137159
  59.7461336   9.8776390  14.4037434  59.6293720  10.8221823  14.3016125
  58.9253782   9.5749952  14.7923234  66.6029670   3.4107551  25.9403929
  67.4720829   3.5848204  25.5790564  66.1236421   4.2301968  25.8179659
  60.7715850  10.5304652  17.6193363  61.6743097  10.5628263  17.9359858
  60.5453220   9.6005103  17.6339699  62.5269452   9.2835639  14.2803442
  61.5765083   9.2837501  14.1667814  62.8301938   8.5368373  13.7639476
  78.2622145  15.1196177  15.3449204  78.9000555  15.0002925  14.6412544
  78.1442988  16.0677021  15.4037156  75.0711852  15.0723605  15.2810729
  74.7330363  14.9564670  14.3931263  75.9401620  14.6714770  15.2611735
  70.9298667  16.9259082  11.2707620  70.3663533  16.8349019  10.5023907
  70.8151062  16.1058986  11.7510112  75.5531635  16.2258457  21.2396934
  75.5420275  15.8311255  20.3677438  75.7152274  15.4924530  21.8330706
  68.4763099  18.4210273  14.1091840  69.2684391  18.0801098  13.6938139
  68.7159749  18.5305248  15.0293993  76.5098226  20.5930050   6.5822084
  75.8586206  21.1784130   6.1956098  77.3042589  21.1236244   6.6417122
  70.4353853  17.6819187   6.9809219  71.2084729  17.1348174   6.8422095
  70.7879252  18.5463436   7.1923680  72.2738896  19.0095569  20.1876118
  71.9828762  19.9141200  20.0722784  72.9095880  19.0512097  20.9020188
  73.1995103  16.3872417  16.7777478  73.7958675  16.1628440  16.0634441
  73.2570074  15.6457163  17.3802926  77.8163414  12.8447631  12.4202412
  78.6026503  12.4267054  12.0692829  78.0802118  13.7493723  12.5884060
  72.4916420  15.7439959   6.8152044  72.3752678  15.0684862   7.4833128
  72.6018680  15.2572333   5.9984197  74.8347961  15.2050106  10.5198733
  74.4706168  14.6780727  11.2311654  75.6915077  14.8148575  10.3465218
  77.2328781  18.6956984  17.1825912  76.9329504  19.5982023  17.0741719
  76.8879840  18.4289168  18.0347065  70.6841262  15.1470781  13.2162616
  69.7591759  15.0146995  13.4240308  70.9325676  15.9265001  13.7132559
  80.6325925  11.2139525  14.8623349  79.7242802  11.1454933  14.5682110
  80.5813520  11.6911470  15.6905175  68.0450073  14.7904055  14.0506405
  68.1742455  15.0438534  14.9645817  67.3647525  15.3831763  13.7311060
  72.2149561  25.4601305  10.1496879  72.1373590  26.4109130  10.2285360
  71.6111204  25.1147177  10.8071806  74.7066790  12.6329170  22.8058246
  73.9300125  13.1923090  22.7961111  75.3457354  13.1185953  23.3273117
  82.4987571   9.4155963  16.6401223  81.8561951   9.7088496  15.9941018
  81.9942500   9.3008883  17.4454420  72.9613163  15.4414624  22.3676213
  73.7027847  15.9799668  22.0911037  72.2550148  16.0680912  22.5247765
  78.4368502  17.5843764  20.9648375  78.8451858  17.1426175  20.2203007
  77.7145764  17.0096392  21.2182568  74.7899572  12.5216371  18.3381932
  75.6360768  12.9455784  18.4816581  74.7298210  11.8649995  19.0320495
  78.7597317  18.1444955  14.7200664  78.1306180  18.3090669  14.0176732
  78.3722979  18.5586564  15.4911628  82.6386549  19.0799393  12.0745028
  81.9537587  19.4598294  11.5242061  82.7230398  19.6894719  12.8076975
  77.9399018  10.1820739  19.9963105  77.6959950  10.9362800  19.4597381
  78.2158948  10.5606087  20.8310353  79.8937481  16.7259352  18.6740371
  80.1054376  17.3691111  17.9974752  79.8467229  15.8921668  18.2062301
  77.4963710   9.3377172  15.5776943  76.6348189   9.6358426  15.8693681
  77.5226144   9.5547571  14.6457976  74.3125279  17.8819363  11.9850749
  74.7763624  18.1607066  11.1955371  74.0482077  16.9802807  11.8023840
  71.2049360  17.4290844  14.9230512  71.7750717  17.8578113  14.2847997
  71.7957472  17.1473429  15.6214698  73.2494165  14.0042515   8.7940314
  73.9518208  14.4563559   9.2614240  72.9174793  13.3626334   9.4220207
  71.6974527  12.5954272  23.1691523  71.0673187  13.2770553  23.4026920
  71.5910614  12.4837353  22.2244662  66.9919499  12.2626068  14.0957448
  66.2018553  12.5183596  13.6197558  67.4830746  13.0774406  14.2009488
  81.0083309  19.6031307  16.8462728  81.8300752  19.2011494  16.5645410
  81.0045711  19.4999541  17.7978844  68.9434244  12.6270647  11.0540924
  68.1465408  12.7389341  11.5724420  68.7159837  12.9657299  10.1881815
  74.7739912  19.1515350  19.0023439  74.8384344  19.6135757  19.8381611
  74.0650836  18.5212715  19.1305749  65.2757202  12.5156558  16.5272438
  65.5265240  13.4003568  16.7930014  65.8116750  12.3361160  15.7547530
  74.4887930  20.8183458   8.8702419  74.3533604  21.6634993   9.2987267
  75.0297742  21.0202735   8.1068353  70.9755269   6.8975038  25.5316774
  70.5822215   6.3441236  26.2064419  71.7921410   7.2085616  25.9223292
  67.9417327  18.3358896   9.4430344  68.4541848  19.1302146   9.5935909
  68.5940040  17.6385186   9.3763946  69.7512212  21.4524652  11.5253097
  69.9278840  22.3742617  11.3374081  70.5469045  21.1383071  11.9547477
  73.8923230   8.3132917  23.1237031  74.6332944   8.9140070  23.0441493
  74.1241153   7.5710554  22.5655074  69.0364568  13.4989284  21.4015261
  68.9218083  12.5974541  21.7022360  68.1809086  13.7452981  21.0500077
  76.1156406  21.4407024  23.0002761  75.6720260  20.6543403  22.6823666
  76.7773620  21.6286175  22.3346652  70.8743527  22.9702826  17.5263440
  71.4250952  22.8419889  16.7540434  70.0355003  23.2697715  17.1758333
  78.2137644  21.7209824  21.0284163  78.1956119  22.5418705  20.5364432
  79.1357564  21.5963899  21.2534304  74.6710698  19.2353954  21.8707671
  75.2039035  18.4742242  21.6406979  74.1424779  18.9427605  22.6131825
  65.9066244  16.6647550  10.2189915  66.7441466  17.0744558  10.0023623
  66.0844511  15.7246992  10.1890109  76.9176934   6.7118675  15.3650546
  76.4141729   6.6748810  14.5518351  77.2107540   7.6211417  15.4247203
  73.1619819   6.7957405  14.3716728  74.0272816   6.6000213  14.0122617
  73.2297328   6.5667756  15.2986084  76.0363411  18.3639946   9.3826483
  75.5084772  17.6292706   9.0699720  75.5350914  19.1414622   9.1366451
  81.0156257  16.5588967  14.4993529  80.3579931  17.2488228  14.5873658
  81.8196656  16.9485399  14.8427516  70.7682139   9.0259612  11.7433094
  71.3425890   8.8034794  11.0106287  71.3553121   9.0948307  12.4961696
  79.8261716  14.9133339  12.5497471  80.3393597  15.5463331  13.0519181
  80.4762940  14.3134535  12.1840831  77.0884090  24.8917664   5.3058142
  76.4145789  25.1949360   5.9143100  77.4749912  25.6946744   4.9563599
  76.3042547  12.3882795  14.7955812  75.3865108  12.6097742  14.6377500
  76.7202690  12.4629105  13.9367519  77.0877594  13.7874211   9.9258492
  77.8349413  14.2995608   9.6165614  77.3569184  13.4658263  10.7862885
  75.3604245  16.2832751   6.9085446  74.4515464  15.9991784   7.0057916
  75.3899328  16.7031830   6.0488753  80.5923512  19.8939341  10.6776614
  80.1385839  19.0530251  10.7341804  79.9617479  20.5300739  11.0151394
  79.0356451  21.7315837  11.6126432  79.3279426  22.2920895  10.8938797
  79.5455072  22.0244398  12.3679591  65.9292415  14.0038265  10.8900648
  65.7316815  13.4107626  10.1651715  65.3739079  13.6990476  11.6076587
  73.9089139  13.8961372  13.0095241  73.9637748  12.9435208  12.9337718
  73.0980341  14.0520811  13.4936540  71.8481499  12.5138432  10.7685620
  71.0349364  12.8132602  11.1750812  72.3440493  12.1194120  11.4860103
  73.9990076  22.5096189  12.7019885  73.9566255  22.7357035  11.7728417
  74.9152775  22.2759563  12.8505686  77.4455710  12.9780256  19.6000514
  77.8005098  13.2051729  20.4594980  78.0927841  13.3098633  18.9777769
  71.3395573  10.0856787  16.3846855  71.9794953   9.9445546  15.6869819
  70.5073104   9.7991301  16.0085457  83.2022827  18.1675219  15.3161115
  83.6359333  18.0750508  16.1644169  83.9154407  18.1432719  14.6781131
  72.1155877  19.3859218  12.4981848  72.9096476  18.8909538  12.2964423
  71.4047570  18.8577081  12.1349553  76.9350722  21.7677313  16.8494215
  76.9887744  22.3368249  17.6171931  76.0665503  21.9379198  16.4848252
  68.4238641  13.5302299   8.5741600  67.4936229  13.4686755   8.7911563
  68.5196113  13.0078252   7.7778242  68.3424190  10.0557112  11.1619842
  68.6031007  10.9702445  11.0529003  69.1641362   9.5881555  11.3116455
  69.8149115  11.4694869  18.3318667  70.4872168  11.2612231  17.6831315
  68.9878902  11.2716955  17.8923899  84.0638376  18.2098920  17.8494000
  84.2574266  19.1144730  18.0953275  83.9638994  17.7506339  18.6832585
  75.7174687   8.0956810  20.3484327  75.0702602   8.7946760  20.2548804
  76.4875702   8.5292954  20.7160576  79.1253485  18.3605662  23.4234881
  78.9738991  18.1316214  22.5064964  79.1158164  19.3176264  23.4366226
  75.8938821  15.9337575  18.4081147  76.8230881  16.0848735  18.2350114
  75.4729851  16.0221596  17.5529794  74.6927153  19.9588240  16.1779685
  74.5538239  19.5907024  17.0505623  73.9041749  20.4735879  16.0063643
  75.2875305  25.0597336   7.5205221  75.4627061  24.5885379   8.3350844
  74.6008093  25.6863102   7.7486482  76.2432368  19.3369842  13.5668523
  75.9082201  19.2970612  14.4626172  75.7436314  18.6714558  13.0938933
  70.2176612  14.7437472  19.0921104  70.0796410  14.0117711  19.6932643
  71.1281536  14.6546372  18.8105291  72.8458913  14.4557432  18.5804783
  73.5558531  13.8150624  18.5391402  72.8028221  14.7070326  19.5030964
  80.8345692  21.3924785  21.5011363  80.7758238  20.7084005  20.8341946
  81.2365210  22.1343775  21.0491989  71.5587847  11.4422649  20.4000423
  71.0225204  10.9913388  21.0522019  70.9704555  11.5768558  19.6570887
  69.8536390  28.2086699  14.2945082  70.0932989  28.8405223  14.9724100
  69.0105587  27.8574739  14.5810441  80.8363099  19.3564369  19.7325342
  79.9489878  19.0190291  19.8551741  81.4061650  18.6247400  19.9694108
  62.4892246  15.6888461  13.0568394  63.1763286  15.3750191  12.4689409
  62.3340375  16.5929825  12.7835645  67.2926968  10.5778657  17.4853417
  67.2085157   9.9704327  16.7503827  66.4709675  11.0687675  17.4862914
  74.3664252  24.0165821  16.6986585  74.2934424  24.8220793  17.2105890
  73.9241645  24.2157787  15.8734607  74.1554032  23.2537591  10.2089407
  73.3721554  23.7959271  10.3027632  74.8546777  23.7711571  10.6083648
  76.8262936  23.9152655  18.8544744  77.5390908  24.5500120  18.7820646
  76.3352964  24.0116521  18.0384746  78.5480463  17.8203908  10.4262036
  77.6136741  17.9405370  10.2566740  78.7257131  16.9176375  10.1622046
  74.0485651  11.2049604  12.5795297  73.6783438  10.6520644  13.2676203
  74.5444743  10.6007737  12.0270297  71.8774849  21.6647099  19.6750315
  72.5784309  22.2983582  19.8279709  71.4069964  22.0061830  18.9145954
  80.0029245  20.0065049   7.9598222  80.2789089  19.8921643   8.8692096
  79.1333744  19.6082533   7.9210395  79.6776135  14.2191706  17.5002865
  79.0247586  14.4667614  16.8455318  80.0556515  13.4055844  17.1665343
  76.6383309  24.2551399  11.6031036  76.8205704  23.4373055  12.0658788
  77.4616295  24.4719092  11.1655926  76.9725475  23.1819584   8.8646084
  77.5013241  22.6712039   8.2516246  77.2353694  22.8662115   9.7291617
  75.7263708  14.9611517  23.9868902  75.0504345  14.8605647  24.6571278
  76.5491342  14.8050731  24.4504900  67.4742567  21.1983454  16.6081418
  68.0596004  20.4527142  16.7409322  67.2767406  21.5087410  17.4918082
  70.3281223  24.2334701  11.6243860  69.6591598  24.7180829  11.1407900
  70.1894092  24.4803922  12.5387239  62.0660222  13.7689054  15.3285861
  62.1044322  13.2352645  16.1222979  61.5600515  13.2424259  14.7096838
  74.4686491  26.2678445  18.2226518  75.0204799  26.4310066  18.9875604
  74.8092685  26.8582883  17.5506543  69.4450984   8.6153594  18.8248403
  69.5092311   9.4768425  18.4125801  69.3818105   8.0027596  18.0920762
  68.9203257  10.6876727  22.4721437  69.5475296  10.3053804  23.0858962
  68.0631176  10.4690929  22.8377130  79.3197366  21.0939702  24.0775173
  79.8637270  21.7069660  23.5830128  78.7384210  21.6519281  24.5942186
  65.6968800  12.4953156   8.4039792  65.9922241  11.5863835   8.3506846
  64.7956835  12.4740896   8.0820795  77.6054878  24.2160420  15.2090201
  77.4806018  23.4150160  14.7001146  78.2633970  24.7106614  14.7204171
  69.2263047  10.5709153  14.3867341  68.5049632  11.1845120  14.2474814
  70.0156302  11.1066918  14.3083987  79.6689787  22.0169440  16.8369751
  78.7220122  21.8974791  16.7648077  80.0172560  21.1291938  16.9196012
  72.0289360   7.9063579  20.6607993  72.5523762   8.1525876  21.4234302
  71.8101694   8.7383614  20.2411130  76.6736220  21.8122157  13.0374103
  76.5261183  20.8838864  13.2181673  77.4989714  21.8342247  12.5531178
  70.5398464  10.4640224   8.8954595  70.8794537  10.9926145   8.1733203
  70.9870585  10.8020630   9.6713162  80.2770342  22.6350715  14.1238976
  81.2016889  22.4293577  13.9863427  80.1085645  22.3867116  15.0328317
  73.2341905   8.8477274  18.3457663  72.8938726   8.0485087  18.7478343
  72.5280912   9.1478985  17.7734496  73.8858377   5.9326587  16.7984986
  74.7084446   5.4587065  16.6763876  74.1296441   6.7117070  17.2983672
  71.4096956  12.6245707  14.6076965  71.2641537  12.9386010  15.5001246
  70.9322159  13.2430608  14.0547863  73.2693339   9.6148255  14.6557854
  73.2554907   8.7189349  14.3190152  73.9865767   9.6218919  15.2896140
  75.1219469  10.0485596  16.7010982  74.8637247  10.9702666  16.6995312
  74.5904510   9.6516030  17.3911446  80.0665658  23.1536383   9.4801067
  80.2402536  22.5882805   8.7274920  80.5594549  23.9537278   9.2980557
  65.8842618  15.1651052  17.5464626  65.3396086  15.9410860  17.6784900
  66.7621968  15.5121856  17.3883747  72.6730235   8.4962636   9.9245424
  72.7946146   7.5679282  10.1236312  72.3832277   8.5101322   9.0123740
  66.6708640  14.2920948  20.4394783  65.9290376  14.4403583  21.0259413
  66.3501384  14.5529214  19.5761532  74.6152303  23.8336926  20.2375173
  74.9239429  23.5886073  21.1097872  75.4127785  24.0383565  19.7494043
  74.6372915  25.9874836  12.4680549  74.1977905  25.4951215  13.1613406
  75.3881032  25.4447804  12.2272625  67.1165254  22.1786377  12.4705177
  67.9423273  21.8790149  12.0903821  66.7659306  21.4093999  12.9194966
  72.0846787  21.5312845  14.5402851  71.4626796  20.8683550  14.2405079
  72.7551654  21.5573977  13.8576499  65.3173859  20.0972703  13.4294111
  64.4805767  19.6694878  13.2478112  65.2897504  20.2905147  14.3664902
  72.1571314  10.0094633  24.1335357  72.2059470  10.8856756  23.7513127
  72.6993828   9.4672026  23.5607000  82.6426160  20.5535756  23.4136494
  81.8521704  20.5359895  22.8740993  82.4059514  21.0924050  24.1685531
  82.7624035  17.4028223  20.7269223  82.8122040  17.2378230  21.6684745
  82.6537958  16.5355482  20.3367103  71.6460294  20.0816768   8.0161312
  71.7948414  20.7652233   7.3627984  72.4526737  20.0621858   8.5310767
  80.0527797  13.3859151  22.0428529  80.9537660  13.2465616  21.7512527
  80.1275772  13.5513606  22.9826707  74.3870603  10.7626005  20.8881716
  73.5173912  11.0559571  20.6164304  74.6230083  11.3466450  21.6088979
  84.2642232  19.8225164  20.9711244  83.9727040  20.1855145  21.8074705
  83.6514363  19.1092172  20.7924576  82.5129420  14.9457779  19.4391302
  82.9883542  15.1385425  18.6310154  81.5894985  15.0016965  19.1934686
  69.4012927  16.1081946   9.0222380  69.1558969  15.2044276   9.2202591
  69.5708841  16.1099096   8.0801858  77.0909636   6.9805622  18.4047136
  77.6091580   7.7166649  18.0793625  76.7364769   7.2869616  19.2393895
  75.1455699  22.5764899   5.4873059  74.5729666  23.1955086   5.0343531
  75.7188493  23.1264260   6.0212981  81.2131089  11.8223539  17.6719608
  82.1648512  11.9221637  17.6931832  81.0434539  11.0301807  18.1817692
  79.2345468   8.9079122  17.8579009  78.6395401   9.1884135  17.1625497
  78.9495165   9.3973023  18.6295750  78.3652959  22.8602049   6.6181641
  79.2983632  22.7947611   6.8214517  78.2776172  23.6958316   6.1596174
  83.6919167  15.0429659  16.7861907  83.6595487  14.1045659  16.9721591
  84.3019790  15.1213695  16.0527732  83.8413655  11.8340702  16.8320191
  83.3252704  11.0499159  16.6450119  84.7253604  11.5059419  16.9966710
  75.4141190  17.9643458  24.2889768  76.3344200  18.1422057  24.4829815
  75.3790773  17.0199503  24.1369468  64.6323355  13.1582051  13.2143043
  64.3126140  12.3047360  12.9217417  64.0856783  13.3730629  13.9701010
  68.4103263  15.8744492  16.9312550  68.6289273  16.8061600  16.9500583
  68.8229037  15.5152467  17.7167353  73.2831128  11.4477698  26.3215299
  73.1827855  12.3972055  26.2527390  73.0652670  11.1195937  25.4491369
  64.5011615  16.7784963  15.1836165  63.8075087  16.3638916  14.6706119
  65.2484606  16.8205499  14.5869584  73.1462398  14.8774837  25.1380360
  72.6629480  15.6775197  25.3444249  73.2323337  14.8882782  24.1847804
  66.4148358  16.7103217  13.0602180  66.3919046  16.8090904  12.1084063
  66.7248994  17.5568367  13.3819346  69.0735736  18.7679372  17.1748794
  70.0278989  18.7363314  17.1078726  68.8748259  18.3069995  17.9899020
  69.6635118  17.3380488  19.7419592  70.4828007  17.8324566  19.7654429
  69.9371925  16.4212456  19.7137159  67.4285964  24.3098991  14.1918992
  67.2940432  23.5499392  13.6256990  67.0118027  25.0339891  13.7247781
  70.5855090  25.2068308  14.4037434  70.4687474  26.1513741  14.3016125
  69.7647537  24.9041870  14.7923234  64.9170032  11.6718622  20.4411789
  65.5628896  11.1617576  20.9299014  64.7087183  12.4087303  21.0155214
  77.4423424  18.7399469  25.9403929  78.3114584  18.9140121  25.5790564
  76.9630176  19.5593886  25.8179659  71.6109604  25.8596570  17.6193363
  72.5136851  25.8920180  17.9359858  71.3846974  24.9297021  17.6339699
  73.3663206  24.6127557  14.2803442  72.4158837  24.6129418  14.1667814
  73.6695693  23.8660291  13.7639476  69.2567523   8.8186239  24.5386803
  70.1198985   8.4623043  24.7490127  68.6832934   8.4800133  25.2262207
  89.1015900  30.4488095  15.3449204  89.7394310  30.3294842  14.6412544
  88.9836743  31.3968939  15.4037156  85.9105606  30.4015523  15.2810729
  85.5724118  30.2856588  14.3931263  86.7795374  30.0006688  15.2611735
  81.7692422  32.2550999  11.2707620  81.2057287  32.1640936  10.5023907
  81.6544817  31.4350904  11.7510112  86.3925389  31.5550375  21.2396934
  86.3814030  31.1603173  20.3677438  86.5546029  30.8216447  21.8330706
  79.3156854  33.7502191  14.1091840  80.1078146  33.4093016  13.6938139
  79.5553504  33.8597166  15.0293993  87.3491981  35.9221967   6.5822084
  86.6979960  36.5076048   6.1956098  88.1436343  36.4528162   6.6417122
  81.2747608  33.0111104   6.9809219  82.0478484  32.4640091   6.8422095
  81.6273007  33.8755354   7.1923680  83.1132650  34.3387487  20.1876118
  82.8222516  35.2433117  20.0722784  83.7489635  34.3804014  20.9020188
  84.0388857  31.7164335  16.7777478  84.6352429  31.4920358  16.0634441
  84.0963829  30.9749081  17.3802926  88.6557168  28.1739549  12.4202412
  89.4420258  27.7558972  12.0692829  88.9195873  29.0785641  12.5884060
  83.3310174  31.0731876   6.8152044  83.2146432  30.3976780   7.4833128
  83.4412434  30.5864250   5.9984197  85.6741715  30.5342024  10.5198733
  85.3099922  30.0072644  11.2311654  86.5308831  30.1440493  10.3465218
  91.5791016  21.8236356  17.7829999  91.2474341  22.6931767  17.5591214
  90.9836629  21.5072640  18.4624029  88.0722535  34.0248902  17.1825912
  87.7723258  34.9273941  17.0741719  87.7273595  33.7581085  18.0347065
  81.5235017  30.4762699  13.2162616  80.5985513  30.3438913  13.4240308
  81.7719430  31.2556918  13.7132559  91.4719679  26.5431442  14.8623349
  90.5636557  26.4746851  14.5682110  91.4207275  27.0203387  15.6905175
  78.8843828  30.1195973  14.0506405  79.0136209  30.3730451  14.9645817
  78.2041279  30.7123681  13.7311060  83.0543315  40.7893222  10.1496879
  82.9767345  41.7401048  10.2285360  82.4504959  40.4439095  10.8071806
  85.5460545  27.9621088  22.8058246  84.7693879  28.5215008  22.7961111
  86.1851108  28.4477871  23.3273117  93.3381326  24.7447881  16.6401223
  92.6955706  25.0380414  15.9941018  92.8336254  24.6300801  17.4454420
  83.8006917  30.7706541  22.3676213  84.5421602  31.3091585  22.0911037
  83.0943903  31.3972830  22.5247765  89.2762257  32.9135682  20.9648375
  89.6845613  32.4718092  20.2203007  88.5539518  32.3388309  21.2182568
  85.6293327  27.8508288  18.3381932  86.4754522  28.2747702  18.4816581
  85.5691965  27.1941913  19.0320495  89.5991072  33.4736872  14.7200664
  88.9699934  33.6382586  14.0176732  89.2116734  33.8878482  15.4911628
  93.4780303  34.4091310  12.0745028  92.7931342  34.7890212  11.5242061
  93.5624153  35.0186637  12.8076975  88.7792772  25.5112657  19.9963105
  88.5353704  26.2654717  19.4597381  89.0552703  25.8898004  20.8310353
  90.7331235  32.0551269  18.6740371  90.9448130  32.6983029  17.9974752
  90.6860983  31.2213586  18.2062301  88.3357464  24.6669090  15.5776943
  87.4741943  24.9650343  15.8693681  88.3619899  24.8839489  14.6457976
  85.1519033  33.2111280  11.9850749  85.6157379  33.4898983  11.1955371
  84.8875832  32.3094725  11.8023840  82.0443114  32.7582762  14.9230512
  82.6144472  33.1870030  14.2847997  82.6351226  32.4765347  15.6214698
  84.0887919  29.3334433   8.7940314  84.7911963  29.7855476   9.2614240
  83.7568548  28.6918252   9.4220207  82.5368281  27.9246189  23.1691523
  81.9066942  28.6062470  23.4026920  82.4304369  27.8129271  22.2244662
  77.8313253  27.5917985  14.0957448  77.0412307  27.8475514  13.6197558
  78.3224501  28.4066323  14.2009488  91.8477063  34.9323225  16.8462728
  92.6694507  34.5303412  16.5645410  91.8439466  34.8291459  17.7978844
  79.7827999  27.9562565  11.0540924  78.9859162  28.0681259  11.5724420
  79.5553591  28.2949217  10.1881815  85.6133666  34.4807268  19.0023439
  85.6778099  34.9427675  19.8381611  84.9044590  33.8504633  19.1305749
  76.1150956  27.8448476  16.5272438  76.3658995  28.7295486  16.7930014
  76.6510505  27.6653077  15.7547530  85.3281684  36.1475375   8.8702419
  85.1927359  36.9926911   9.2987267  85.8691497  36.3494653   8.1068353
  81.8149024  22.2266955  25.5316774  81.4215969  21.6733154  26.2064419
  82.6315164  22.5377534  25.9223292  78.7811081  33.6650813   9.4430344
  79.2935602  34.4594064   9.5935909  79.4333794  32.9677104   9.3763946
  80.5905966  36.7816570  11.5253097  80.7672595  37.7034534  11.3374081
  81.3862800  36.4674989  11.9547477  84.7316985  23.6424834  23.1237031
  85.4726698  24.2431987  23.0441493  84.9634908  22.9002472  22.5655074
  79.8758323  28.8281202  21.4015261  79.7611838  27.9266459  21.7022360
  79.0202840  29.0744898  21.0500077  86.9550160  36.7698942  23.0002761
  86.5114015  35.9835320  22.6823666  87.6167374  36.9578092  22.3346652
  81.7137282  38.2994744  17.5263440  82.2644707  38.1711807  16.7540434
  80.8748758  38.5989633  17.1758333  89.0531399  37.0501742  21.0284163
  89.0349874  37.8710623  20.5364432  89.9751319  36.9255817  21.2534304
  85.5104453  34.5645871  21.8707671  86.0432790  33.8034160  21.6406979
  84.9818534  34.2719523  22.6131825  88.6774148  19.6705937  17.4001313
  88.3338417  20.5607579  17.3240423  89.0453110  19.4807595  16.5370898
  76.7459998  31.9939468  10.2189915  77.5835220  32.4036476  10.0023623
  76.9238266  31.0538910  10.1890109  87.7570688  22.0410592  15.3650546
  87.2535484  22.0040728  14.5518351  88.0501295  22.9503335  15.4247203
  84.0013574  22.1249322  14.3716728  84.8666571  21.9292131  14.0122617
  84.0691083  21.8959674  15.2986084  86.8757165  33.6931864   9.3826483
  86.3478527  32.9584623   9.0699720  86.3744668  34.4706540   9.1366451
  91.8550011  31.8880884  14.4993529  91.1973686  32.5780146  14.5873658
  92.6590411  32.2777316  14.8427516  81.6075893  24.3551530  11.7433094
  82.1819645  24.1326712  11.0106287  82.1946875  24.4240225  12.4961696
  90.6655470  30.2425257  12.5497471  91.1787352  30.8755249  13.0519181
  91.3156694  29.6426453  12.1840831  87.9277844  40.2209581   5.3058142
  87.2539543  40.5241278   5.9143100  88.3143666  41.0238662   4.9563599
  87.1436301  27.7174713  14.7955812  86.2258862  27.9389660  14.6377500
  87.5596445  27.7921023  13.9367519  87.9271349  29.1166128   9.9258492
  88.6743168  29.6287525   9.6165614  88.1962938  28.7950181  10.7862885
  86.1997999  31.6124669   6.9085446  85.2909218  31.3283702   7.0057916
  86.2293083  32.0323748   6.0488753  91.4317266  35.2231258  10.6776614
  90.9779594  34.3822168  10.7341804  90.8011233  35.8592657  11.0151394
  89.8750206  37.0607755  11.6126432  90.1673180  37.6212812  10.8938797
  90.3848826  37.3536316  12.3679591  76.7686169  29.3330183  10.8900648
  76.5710569  28.7399544  10.1651715  76.2132833  29.0282393  11.6076587
  84.7482893  29.2253290  13.0095241  84.8031503  28.2727126  12.9337718
  83.9374095  29.3812729  13.4936540  82.6875253  27.8430349  10.7685620
  81.8743119  28.1424520  11.1750812  83.1834247  27.4486038  11.4860103
  84.8383831  37.8388106  12.7019885  84.7960010  38.0648953  11.7728417
  85.7546530  37.6051481  12.8505686  88.2849465  28.3072174  19.6000514
  88.6398852  28.5343647  20.4594980  88.9321596  28.6390551  18.9777769
  82.1789328  25.4148705  16.3846855  82.8188707  25.2737464  15.6869819
  81.3466858  25.1283218  16.0085457  94.0416581  33.4967137  15.3161115
  94.4753088  33.4042426  16.1644169  94.7548162  33.4724637  14.6781131
  82.9549632  34.7151135  12.4981848  83.7490230  34.2201455  12.2964423
  82.2441324  34.1868998  12.1349553  87.7744476  37.0969231  16.8494215
  87.8281498  37.6660167  17.6171931  86.9059257  37.2671116  16.4848252
  79.2632395  28.8594217   8.5741600  78.3329983  28.7978672   8.7911563
  79.3589867  28.3370170   7.7778242  79.1817944  25.3849030  11.1619842
  79.4424761  26.2994363  11.0529003  80.0035116  24.9173472  11.3116455
  80.6542870  26.7986787  18.3318667  81.3265923  26.5904149  17.6831315
  79.8272656  26.6008873  17.8923899  94.9032131  33.5390837  17.8494000
  95.0968021  34.4436648  18.0953275  94.8032749  33.0798256  18.6832585
  86.5568442  23.4248728  20.3484327  85.9096357  24.1238678  20.2548804
  87.3269457  23.8584872  20.7160576  89.9647239  33.6897580  23.4234881
  89.8132746  33.4608132  22.5064964  89.9551919  34.6468181  23.4366226
  86.7332576  31.2629493  18.4081147  87.6624636  31.4140652  18.2350114
  86.3123606  31.3513514  17.5529794  85.5320908  35.2880157  16.1779685
  85.3931993  34.9198942  17.0505623  84.7435504  35.8027797  16.0063643
  86.1269060  40.3889254   7.5205221  86.3020815  39.9177297   8.3350844
  85.4401848  41.0155020   7.7486482  87.0826123  34.6661760  13.5668523
  86.7475955  34.6262530  14.4626172  86.5830068  34.0006476  13.0938933
  81.0570367  30.0729390  19.0921104  80.9190165  29.3409629  19.6932643
  81.9675290  29.9838290  18.8105291  83.6852667  29.7849349  18.5804783
  84.3952286  29.1442541  18.5391402  83.6421976  30.0362244  19.5030964
  91.6739446  36.7216703  21.5011363  91.6151992  36.0375923  20.8341946
  92.0758964  37.4635693  21.0491989  82.3981601  26.7714567  20.4000423
  81.8618958  26.3205306  21.0522019  81.8098310  26.9060476  19.6570887
  80.6930145  43.5378616  14.2945082  80.9326743  44.1697141  14.9724100
  79.8499341  43.1866656  14.5810441  91.6756853  34.6856287  19.7325342
  90.7883632  34.3482208  19.8551741  92.2455404  33.9539318  19.9694108
  73.3286000  31.0180378  13.0568394  74.0157040  30.7042108  12.4689409
  73.1734129  31.9221743  12.7835645  78.1320723  25.9070575  17.4853417
  78.0478911  25.2996244  16.7503827  77.3103429  26.3979593  17.4862914
  85.2058007  39.3457739  16.6986585  85.1328178  40.1512710  17.2105890
  84.7635400  39.5449705  15.8734607  84.9947786  38.5829509  10.2089407
  84.2115308  39.1251189  10.3027632  85.6940532  39.1003489  10.6083648
  87.6656690  39.2444573  18.8544744  88.3784662  39.8792038  18.7820646
  87.1746719  39.3408439  18.0384746  89.3874217  33.1495826  10.4262036
  88.4530496  33.2697288  10.2566740  89.5650886  32.2468292  10.1622046
  84.8879405  26.5341521  12.5795297  84.5177193  25.9812562  13.2676203
  85.3838498  25.9299655  12.0270297  82.7168604  36.9939016  19.6750315
  83.4178063  37.6275499  19.8279709  82.2463719  37.3353748  18.9145954
  90.8423000  35.3356966   7.9598222  91.1182844  35.2213561   8.8692096
  89.9727498  34.9374451   7.9210395  90.5169890  29.5483624  17.5002865
  89.8641340  29.7959531  16.8455318  90.8950270  28.7347762  17.1665343
  87.4777064  39.5843317  11.6031036  87.6599458  38.7664973  12.0658788
  88.3010050  39.8011009  11.1655926  87.8119229  38.5111502   8.8646084
  88.3406996  38.0003957   8.2516246  88.0747449  38.1954032   9.7291617
  86.5657463  30.2903435  23.9868902  85.8898100  30.1897564  24.6571278
  87.3885097  30.1342649  24.4504900  78.3136322  36.5275371  16.6081418
  78.8989759  35.7819059  16.7409322  78.1161160  36.8379328  17.4918082
  81.1674977  39.5626619  11.6243860  80.4985352  40.0472746  11.1407900
  81.0287847  39.8095839  12.5387239  72.9053977  29.0980972  15.3285861
  72.9438076  28.5644562  16.1222979  72.3994269  28.5716177  14.7096838
  85.3080246  41.5970362  18.2226518  85.8598554  41.7601984  18.9875604
  85.6486439  42.1874800  17.5506543  80.2844739  23.9445512  18.8248403
  80.3486065  24.8060343  18.4125801  80.2211859  23.3319514  18.0920762
  79.7597011  26.0168645  22.4721437  80.3869050  25.6345722  23.0858962
  78.9024930  25.7982847  22.8377130  90.1591120  36.4231620  24.0775173
  90.7031024  37.0361578  23.5830128  89.5777965  36.9811198  24.5942186
  76.5362554  27.8245074   8.4039792  76.8315995  26.9155752   8.3506846
  75.6350590  27.8032813   8.0820795  88.4448633  39.5452338  15.2090201
  88.3199772  38.7442078  14.7001146  89.1027724  40.0398531  14.7204171
  80.0656801  25.9001070  14.3867341  79.3443387  26.5137038  14.2474814
  80.8550057  26.4358835  14.3083987  90.5083541  37.3461358  16.8369751
  89.5613877  37.2266709  16.7648077  90.8566314  36.4583856  16.9196012
  82.8683115  23.2355497  20.6607993  83.3917517  23.4817793  21.4234302
  82.6495448  24.0675532  20.2411130  78.2650396  25.5059171   8.5279117
  77.9363102  24.6256550   8.3454223  78.6189766  25.4506840   9.4155507
  87.5129975  37.1414074  13.0374103  87.3654937  36.2130782  13.2181673
  88.3383468  37.1634165  12.5531178  81.3792219  25.7932141   8.8954595
  81.7188291  26.3218063   8.1733203  81.8264339  26.1312547   9.6713162
  91.1164096  37.9642633  14.1238976  92.0410644  37.7585494  13.9863427
  90.9479400  37.7159034  15.0328317  84.0735660  24.1769192  18.3457663
  83.7332480  23.3777005  18.7478343  83.3674666  24.4770903  17.7734496
  84.7252132  21.2618504  16.7984986  85.5478201  20.7878983  16.6763876
  84.9690195  22.0408988  17.2983672  82.2490710  27.9537625  14.6076965
  82.1035291  28.2677928  15.5001246  81.7715914  28.5722525  14.0547863
  84.1087093  24.9440173  14.6557854  84.0948662  24.0481266  14.3190152
  84.8259521  24.9510837  15.2896140  85.9613224  25.3777513  16.7010982
  85.7031002  26.2994584  16.6995312  85.4298264  24.9807948  17.3911446
  90.9059413  38.4828300   9.4801067  91.0796290  37.9174723   8.7274920
  91.3988304  39.2829195   9.2980557  76.7236373  30.4942969  17.5464626
  76.1789841  31.2702777  17.6784900  77.6015722  30.8413774  17.3883747
  83.5123989  23.8254553   9.9245424  83.6339900  22.8971200  10.1236312
  83.2226032  23.8393239   9.0123740  77.5102394  29.6212866  20.4394783
  76.7684130  29.7695501  21.0259413  77.1895139  29.8821131  19.5761532
  85.4546057  39.1628844  20.2375173  85.7633183  38.9177991  21.1097872
  86.2521539  39.3675482  19.7494043  85.4766669  41.3166754  12.4680549
  85.0371659  40.8243132  13.1613406  86.2274786  40.7739721  12.2272625
  77.9559008  37.5078294  12.4705177  78.7817028  37.2082066  12.0903821
  77.6053060  36.7385917  12.9194966  82.9240541  36.8604763  14.5402851
  82.3020550  36.1975468  14.2405079  83.5945408  36.8865895  13.8576499
  76.1567613  35.4264621  13.4294111  75.3199521  34.9986795  13.2478112
  76.1291259  35.6197064  14.3664902  82.9965069  25.3386551  24.1335357
  83.0453224  26.2148673  23.7513127  83.5387583  24.7963944  23.5607000
  93.4819914  35.8827674  23.4136494  92.6915458  35.8651813  22.8740993
  93.2453269  36.4215968  24.1685531  93.6017789  32.7320140  20.7269223
  93.6515794  32.5670148  21.6684745  93.4931713  31.8647399  20.3367103
  82.4854048  35.4108686   8.0161312  82.6342168  36.0944150   7.3627984
  83.2920492  35.3913776   8.5310767  90.8921552  28.7151068  22.0428529
  91.7931415  28.5757533  21.7512527  90.9669526  28.8805523  22.9826707
  85.2264357  26.0917923  20.8881716  84.3567667  26.3851489  20.6164304
  85.4623838  26.6758368  21.6088979  95.1035986  35.1517082  20.9711244
  94.8120795  35.5147062  21.8074705  94.4908118  34.4384090  20.7924576
  93.3523175  30.2749696  19.4391302  93.8277296  30.4677343  18.6310154
  92.4288740  30.3308882  19.1934686  80.2406681  31.4373864   9.0222380
  79.9952723  30.5336194   9.2202591  80.4102596  31.4391014   8.0801858
  87.9303391  22.3097540  18.4047136  88.4485335  23.0458567  18.0793625
  87.5758524  22.6161533  19.2393895  79.5102329  27.1702221   6.5208542
  78.8171574  27.2446576   5.8648578  79.2654081  26.4062565   7.0430059
  85.9849454  37.9056816   5.4873059  85.4123421  38.5247004   5.0343531
  86.5582247  38.4556178   6.0212981  92.0524843  27.1515457  17.6719608
  93.0042266  27.2513554  17.6931832  91.8828294  26.3593725  18.1817692
  90.0739223  24.2371040  17.8579009  89.4789155  24.5176052  17.1625497
  89.7888920  24.7264941  18.6295750  89.2046713  38.1893967   6.6181641
  90.1377387  38.1239528   6.8214517  89.1169926  39.0250233   6.1596174
  94.5312921  30.3721576  16.7861907  94.4989241  29.4337577  16.9721591
  95.1413545  30.4505613  16.0527732  94.6807410  27.1632620  16.8320191
  94.1646458  26.3791076  16.6450119  95.5647358  26.8351336  16.9966710
  86.2534945  33.2935375  24.2889768  87.1737954  33.4713974  24.4829815
  86.2184528  32.3491421  24.1369468  75.4717110  28.4873969  13.2143043
  75.1519894  27.6339277  12.9217417  74.9250538  28.7022547  13.9701010
  79.2497017  31.2036410  16.9312550  79.4683027  32.1353518  16.9500583
  79.6622791  30.8444384  17.7167353  84.1224883  26.7769616  26.3215299
  84.0221609  27.7263973  26.2527390  83.9046425  26.4487855  25.4491369
  75.3405370  32.1076880  15.1836165  74.6468841  31.6930833  14.6706119
  76.0878361  32.1497417  14.5869584  83.9856153  30.2066755  25.1380360
  83.5023234  31.0067115  25.3444249  84.0717092  30.2174699  24.1847804
  77.2542112  32.0395134  13.0602180  77.2312800  32.1382822  12.1084063
  77.5642749  32.8860285  13.3819346  79.9129490  34.0971289  17.1748794
  80.8672744  34.0655232  17.1078726  79.7142014  33.6361913  17.9899020
  80.5028872  32.6672405  19.7419592  81.3221761  33.1616484  19.7654429
  80.7765680  31.7504373  19.7137159  78.2679719  39.6390909  14.1918992
  78.1334187  38.8791310  13.6256990  77.8511781  40.3631809  13.7247781
  81.4248845  40.5360226  14.4037434  81.3081229  41.4805658  14.3016125
  80.6041291  40.2333787  14.7923234  75.7563786  27.0010539  20.4411789
  76.4022650  26.4909493  20.9299014  75.5480938  27.7379221  21.0155214
  88.2817179  34.0691387  25.9403929  89.1508338  34.2432039  25.5790564
  87.8023930  34.8885804  25.8179659  82.4503359  41.1888488  17.6193363
  83.3530606  41.2212098  17.9359858  82.2240729  40.2588939  17.6339699
  84.2056961  39.9419474  14.2803442  83.2552592  39.9421336  14.1667814
  84.5089447  39.1952209  13.7639476  80.0961277  24.1478156  24.5386803
  80.9592739  23.7914961  24.7490127  79.5226688  23.8092051  25.2262207
  99.9409654  45.7780013  15.3449204 100.5788064  45.6586760  14.6412544
  99.8230497  46.7260857  15.4037156  96.7499361  45.7307441  15.2810729
  96.4117872  45.6148505  14.3931263  97.6189129  45.3298606  15.2611735
  92.6086176  47.5842917  11.2707620  92.0451041  47.4932854  10.5023907
  92.4938571  46.7642822  11.7510112  97.2319144  46.8842292  21.2396934
  97.2207784  46.4895091  20.3677438  97.3939783  46.1508365  21.8330706
  90.1550608  49.0794109  14.1091840  90.9471900  48.7384933  13.6938139
  90.3947258  49.1889084  15.0293993  98.1885735  51.2513885   6.5822084
  97.5373715  51.8367965   6.1956098  98.9830098  51.7820080   6.6417122
  92.1141362  48.3403022   6.9809219  92.8872238  47.7932009   6.8422095
  92.4666761  49.2047271   7.1923680  93.9526405  49.6679404  20.1876118
  93.6616271  50.5725035  20.0722784  94.5883389  49.7095932  20.9020188
  94.8782612  47.0456253  16.7777478  95.4746184  46.8212275  16.0634441
  94.9357583  46.3040998  17.3802926  99.4950923  43.5031466  12.4202412
 100.2814012  43.0850890  12.0692829  99.7589627  44.4077559  12.5884060
  94.1703929  46.4023794   6.8152044  94.0540187  45.7268697   7.4833128
  94.2806189  45.9156168   5.9984197  96.5135470  45.8633941  10.5198733
  96.1493677  45.3364562  11.2311654  97.3702586  45.4732410  10.3465218
 102.4184770  37.1528274  17.7829999 102.0868095  38.0223685  17.5591214
 101.8230384  36.8364558  18.4624029  98.9116290  49.3540820  17.1825912
  98.6117013  50.2565859  17.0741719  98.5667349  49.0873003  18.0347065
  92.3628771  45.8054617  13.2162616  91.4379268  45.6730831  13.4240308
  92.6113185  46.5848836  13.7132559 102.3113434  41.8723360  14.8623349
 101.4030311  41.8038768  14.5682110 102.2601029  42.3495305  15.6905175
  89.7237582  45.4487890  14.0506405  89.8529964  45.7022369  14.9645817
  89.0435034  46.0415598  13.7311060  93.8937070  56.1185140  10.1496879
  93.8161099  57.0692965  10.2285360  93.2898713  55.7731013  10.8071806
  96.3854299  43.2913006  22.8058246  95.6087634  43.8506926  22.7961111
  97.0244863  43.7769789  23.3273117 104.1775080  40.0739798  16.6401223
 103.5349460  40.3672332  15.9941018 103.6730009  39.9592719  17.4454420
  94.6400672  46.0998459  22.3676213  95.3815356  46.6383503  22.0911037
  93.9337657  46.7264748  22.5247765 100.1156011  48.2427599  20.9648375
 100.5239367  47.8010010  20.2203007  99.3933273  47.6680227  21.2182568
  96.4687081  43.1800206  18.3381932  97.3148277  43.6039620  18.4816581
  96.4085719  42.5233830  19.0320495 100.4384826  48.8028790  14.7200664
  99.8093688  48.9674504  14.0176732 100.0510488  49.2170400  15.4911628
 104.3174058  49.7383228  12.0745028 103.6325096  50.1182129  11.5242061
 104.4017907  50.3478555  12.8076975  99.6186527  40.8404575  19.9963105
  99.3747459  41.5946635  19.4597381  99.8946457  41.2189922  20.8310353
 101.5724990  47.3843187  18.6740371 101.7841885  48.0274947  17.9974752
 101.5254738  46.5505503  18.2062301  99.1751219  39.9961008  15.5776943
  98.3135698  40.2942261  15.8693681  99.2013653  40.2131406  14.6457976
  95.9912788  48.5403198  11.9850749  96.4551133  48.8190901  11.1955371
  95.7269586  47.6386643  11.8023840  92.8836869  48.0874680  14.9230512
  93.4538226  48.5161948  14.2847997  93.4744981  47.8057264  15.6214698
  94.9281674  44.6626350   8.7940314  95.6305717  45.1147394   9.2614240
  94.5962302  44.0210169   9.4220207  93.3762036  43.2538107  23.1691523
  92.7460696  43.9354388  23.4026920  93.2698123  43.1421189  22.2244662
  88.6707008  42.9209903  14.0957448  87.8806062  43.1767432  13.6197558
  89.1618255  43.7358241  14.2009488 102.6870817  50.2615142  16.8462728
 103.5088261  49.8595330  16.5645410 102.6833220  50.1583376  17.7978844
  90.6221753  43.2854482  11.0540924  89.8252917  43.3973177  11.5724420
  90.3947346  43.6241135  10.1881815  96.4527421  49.8099186  19.0023439
  96.5171853  50.2719593  19.8381611  95.7438345  49.1796551  19.1305749
  86.9544711  43.1740394  16.5272438  87.2052749  44.0587403  16.7930014
  87.4904259  42.9944995  15.7547530  96.1675439  51.4767293   8.8702419
  96.0321113  52.3218829   9.2987267  96.7085251  51.6786571   8.1068353
  92.6542778  37.5558873  25.5316774  92.2609724  37.0025071  26.2064419
  93.4708919  37.8669451  25.9223292  89.6204836  48.9942731   9.4430344
  90.1329357  49.7885981   9.5935909  90.2727549  48.2969022   9.3763946
  91.4299721  52.1108487  11.5253097  91.6066349  53.0326452  11.3374081
  92.2256554  51.7966907  11.9547477  95.5710739  38.9716752  23.1237031
  96.3120453  39.5723905  23.0441493  95.8028662  38.2294390  22.5655074
  90.7152077  44.1573119  21.4015261  90.6005592  43.2558377  21.7022360
  89.8596595  44.4036816  21.0500077  97.7943915  52.0990860  23.0002761
  97.3507769  51.3127238  22.6823666  98.4561129  52.2870010  22.3346652
  92.5531036  53.6286661  17.5263440  93.1038461  53.5003725  16.7540434
  91.7142512  53.9281550  17.1758333  99.8925153  52.3793660  21.0284163
  99.8743628  53.2002541  20.5364432 100.8145073  52.2547735  21.2534304
  96.3498207  49.8937789  21.8707671  96.8826544  49.1326077  21.6406979
  95.8212288  49.6011441  22.6131825  99.5167902  34.9997855  17.4001313
  99.1732172  35.8899497  17.3240423  99.8846865  34.8099513  16.5370898
  87.5853753  47.3231385  10.2189915  88.4228975  47.7328394  10.0023623
  87.7632020  46.3830828  10.1890109  98.5964443  37.3702510  15.3650546
  98.0929238  37.3332645  14.5518351  98.8895049  38.2795253  15.4247203
  94.8407328  37.4541240  14.3716728  95.7060325  37.2584049  14.0122617
  94.9084837  37.2251592  15.2986084  97.7150920  49.0223781   9.3826483
  97.1872281  48.2876541   9.0699720  97.2138423  49.7998458   9.1366451
 102.6943766  47.2172802  14.4993529 102.0367440  47.9072063  14.5873658
 103.4984165  47.6069234  14.8427516  92.4469648  39.6843448  11.7433094
  93.0213399  39.4618629  11.0106287  93.0340630  39.7532142  12.4961696
 101.5049225  45.5717175  12.5497471 102.0181106  46.2047167  13.0519181
 102.1550449  44.9718370  12.1840831  97.9830056  43.0466630  14.7955812
  97.0652617  43.2681577  14.6377500  98.3990199  43.1212941  13.9367519
  98.7665103  44.4458046   9.9258492  99.5136922  44.9579443   9.6165614
  99.0356693  44.1242099  10.7862885  97.0391754  46.9416587   6.9085446
  96.1302973  46.6575619   7.0057916  97.0686837  47.3615665   6.0488753
 102.2711021  50.5523176  10.6776614 101.8173348  49.7114086  10.7341804
 101.6404988  51.1884574  11.0151394 100.7143960  52.3899673  11.6126432
 101.0066935  52.9504730  10.8938797 101.2242581  52.6828234  12.3679591
  87.6079924  44.6622101  10.8900648  87.4104324  44.0691461  10.1651715
  87.0526588  44.3574311  11.6076587  95.5876648  44.5545207  13.0095241
  95.6425257  43.6019044  12.9337718  94.7767850  44.7104646  13.4936540
  93.5269007  43.1722267  10.7685620  92.7136873  43.4716438  11.1750812
  94.0228002  42.7777956  11.4860103  95.6777585  53.1680024  12.7019885
  95.6353764  53.3940870  11.7728417  96.5940284  52.9343398  12.8505686
  99.1243219  43.6364091  19.6000514  99.4792607  43.8635565  20.4594980
  99.7715350  43.9682468  18.9777769  93.0183082  40.7440622  16.3846855
  93.6582462  40.6029382  15.6869819  92.1860613  40.4575136  16.0085457
 104.8810336  48.8259054  15.3161115 105.3146842  48.7334343  16.1644169
 105.5941916  48.8016555  14.6781131  93.7943386  50.0443053  12.4981848
  94.5883985  49.5493373  12.2964423  93.0835079  49.5160916  12.1349553
  98.6138231  52.4261148  16.8494215  98.6675253  52.9952085  17.6171931
  97.7453012  52.5963033  16.4848252  90.1026150  44.1886135   8.5741600
  89.1723738  44.1270590   8.7911563  90.1983622  43.6662087   7.7778242
  90.0211699  40.7140947  11.1619842  90.2818516  41.6286281  11.0529003
  90.8428871  40.2465390  11.3116455  91.4936624  42.1278705  18.3318667
  92.1659677  41.9196067  17.6831315  90.6666411  41.9300791  17.8923899
 105.7425885  48.8682755  17.8494000 105.9361775  49.7728565  18.0953275
 105.6426503  48.4090174  18.6832585  97.3962196  38.7540646  20.3484327
  96.7490111  39.4530595  20.2548804  98.1663211  39.1876789  20.7160576
 100.8040994  49.0189498  23.4234881 100.6526500  48.7900049  22.5064964
 100.7945673  49.9760099  23.4366226  97.5726330  46.5921410  18.4081147
  98.5018390  46.7432570  18.2350114  97.1517360  46.6805431  17.5529794
  96.3714662  50.6172075  16.1779685  96.2325748  50.2490859  17.0505623
  95.5829258  51.1319714  16.0063643  97.9219877  49.9953678  13.5668523
  97.5869710  49.9554448  14.4626172  97.4223823  49.3298394  13.0938933
  91.8964121  45.4021308  19.0921104  91.7583919  44.6701546  19.6932643
  92.8069045  45.3130208  18.8105291  94.5246422  45.1141267  18.5804783
  95.2346040  44.4734459  18.5391402  94.4815730  45.3654162  19.5030964
 102.5133201  52.0508620  21.5011363 102.4545747  51.3667840  20.8341946
 102.9152719  52.7927610  21.0491989  93.2375356  42.1006485  20.4000423
  92.7012713  41.6497223  21.0522019  92.6492064  42.2352394  19.6570887
  91.5323899  58.8670534  14.2945082  91.7720498  59.4989058  14.9724100
  90.6893096  58.5158574  14.5810441 102.5150608  50.0148204  19.7325342
 101.6277387  49.6774126  19.8551741 103.0849159  49.2831235  19.9694108
  84.1679755  46.3472296  13.0568394  84.8550795  46.0334026  12.4689409
  84.0127884  47.2513661  12.7835645  88.9714477  41.2362493  17.4853417
  88.8872666  40.6288162  16.7503827  88.1497184  41.7271511  17.4862914
  96.0451761  54.6749657  16.6986585  95.9721933  55.4804628  17.2105890
  95.6029154  54.8741622  15.8734607  95.8341541  53.9121427  10.2089407
  95.0509063  54.4543107  10.3027632  96.5334286  54.4295406  10.6083648
  98.5050445  54.5736491  18.8544744  99.2178417  55.2083955  18.7820646
  98.0140473  54.6700357  18.0384746 100.2267972  48.4787743  10.4262036
  99.2924250  48.5989206  10.2566740 100.4044640  47.5760210  10.1622046
  95.7273160  41.8633439  12.5795297  95.3570947  41.3104479  13.2676203
  96.2232252  41.2591573  12.0270297  93.5562358  52.3230934  19.6750315
  94.2571818  52.9567417  19.8279709  93.0857473  52.6645666  18.9145954
 101.6816754  50.6648884   7.9598222 101.9576598  50.5505478   8.8692096
 100.8121253  50.2666369   7.9210395 101.3563644  44.8775542  17.5002865
 100.7035095  45.1251449  16.8455318 101.7344024  44.0639680  17.1665343
  98.3170818  54.9135235  11.6031036  98.4993213  54.0956891  12.0658788
  99.1403804  55.1302927  11.1655926  98.6512984  53.8403420   8.8646084
  99.1800750  53.3295874   8.2516246  98.9141203  53.5245950   9.7291617
  97.4051217  45.6195353  23.9868902  96.7291854  45.5189482  24.6571278
  98.2278851  45.4634566  24.4504900  89.1530076  51.8567289  16.6081418
  89.7383513  51.1110977  16.7409322  88.9554915  52.1671246  17.4918082
  92.0068732  54.8918537  11.6243860  91.3379107  55.3764664  11.1407900
  91.8681601  55.1387757  12.5387239  83.7447731  44.4272889  15.3285861
  83.7831831  43.8936480  16.1222979  83.2388024  43.9008095  14.7096838
  96.1474000  56.9262280  18.2226518  96.6992308  57.0893902  18.9875604
  96.4880194  57.5166718  17.5506543  91.1238493  39.2737430  18.8248403
  91.1879820  40.1352261  18.4125801  91.0605614  38.6611431  18.0920762
  90.5990766  41.3460562  22.4721437  91.2262805  40.9637640  23.0858962
  89.7418685  41.1274764  22.8377130 100.9984875  51.7523538  24.0775173
 101.5424778  52.3653496  23.5830128 100.4171719  52.3103116  24.5942186
  87.3756309  43.1536991   8.4039792  87.6709750  42.2447670   8.3506846
  86.4744344  43.1324731   8.0820795  99.2842387  54.8744256  15.2090201
  99.1593527  54.0733995  14.7001146  99.9421479  55.3690449  14.7204171
  90.9050556  41.2292988  14.3867341  90.1837141  41.8428956  14.2474814
  91.6943811  41.7650753  14.3083987 101.3477296  52.6753276  16.8369751
 100.4007631  52.5558627  16.7648077 101.6960069  51.7875774  16.9196012
  93.7076869  38.5647415  20.6607993  94.2311271  38.8109711  21.4234302
  93.4889202  39.3967449  20.2411130  89.1044150  40.8351089   8.5279117
  88.7756856  39.9548468   8.3454223  89.4583521  40.7798758   9.4155507
  98.3523729  52.4705992  13.0374103  98.2048692  51.5422699  13.2181673
  99.1777223  52.4926083  12.5531178  92.2185973  41.1224059   8.8954595
  92.5582046  41.6509980   8.1733203  92.6658094  41.4604465   9.6713162
 101.9557851  53.2934551  14.1238976 102.8804398  53.0877412  13.9863427
 101.7873154  53.0450952  15.0328317  94.9129414  39.5061110  18.3457663
  94.5726235  38.7068923  18.7478343  94.2068421  39.8062821  17.7734496
  95.5645886  36.5910422  16.7984986  96.3871955  36.1170900  16.6763876
  95.8083950  37.3700906  17.2983672  93.0884465  43.2829543  14.6076965
  92.9429046  43.5969846  15.5001246  92.6109668  43.9014443  14.0547863
  94.9480848  40.2732091  14.6557854  94.9342416  39.3773184  14.3190152
  95.6653276  40.2802754  15.2896140  96.8006978  40.7069431  16.7010982
  96.5424756  41.6286502  16.6995312  96.2692019  40.3099865  17.3911446
 101.7453167  53.8120218   9.4801067 101.9190045  53.2466641   8.7274920
 102.2382058  54.6121113   9.2980557  87.5630127  45.8234887  17.5464626
  87.0183595  46.5994695  17.6784900  88.4409477  46.1705692  17.3883747
  94.3517744  39.1546471   9.9245424  94.4733655  38.2263117  10.1236312
  94.0619786  39.1685157   9.0123740  88.3496149  44.9504783  20.4394783
  87.6077885  45.0987419  21.0259413  88.0288893  45.2113049  19.5761532
  96.2939812  54.4920762  20.2375173  96.6026938  54.2469908  21.1097872
  97.0915294  54.6967400  19.7494043  96.3160424  56.6458671  12.4680549
  95.8765414  56.1535050  13.1613406  97.0668541  56.1031639  12.2272625
  88.7952763  52.8370212  12.4705177  89.6210782  52.5373984  12.0903821
  88.4446815  52.0677835  12.9194966  93.7634296  52.1896680  14.5402851
  93.1414305  51.5267385  14.2405079  94.4339163  52.2157812  13.8576499
  86.9961368  50.7556539  13.4294111  86.1593276  50.3278713  13.2478112
  86.9685013  50.9488982  14.3664902  93.8358823  40.6678468  24.1335357
  93.8846979  41.5440591  23.7513127  94.3781337  40.1255861  23.5607000
 104.3213669  51.2119592  23.4136494 103.5309213  51.1943730  22.8740993
 104.0847023  51.7507885  24.1685531 104.4411544  48.0612058  20.7269223
 104.4909549  47.8962065  21.6684745 104.3325467  47.1939317  20.3367103
  93.3247803  50.7400604   8.0161312  93.4735923  51.4236068   7.3627984
  94.1314246  50.7205694   8.5310767 101.7315306  44.0442986  22.0428529
 102.6325169  43.9049451  21.7512527 101.8063281  44.2097441  22.9826707
  96.0658112  41.4209841  20.8881716  95.1961421  41.7143407  20.6164304
  96.3017592  42.0050286  21.6088979 105.9429741  50.4809000  20.9711244
 105.6514549  50.8438980  21.8074705 105.3301872  49.7676008  20.7924576
 104.1916929  45.6041614  19.4391302 104.6671051  45.7969260  18.6310154
 103.2682494  45.6600800  19.1934686  91.0800436  46.7665781   9.0222380
  90.8346478  45.8628111   9.2202591  91.2496350  46.7682932   8.0801858
  98.7697145  37.6389458  18.4047136  99.2879089  38.3750485  18.0793625
  98.4152278  37.9453451  19.2393895  90.3496083  42.4994139   6.5208542
  89.6565328  42.5738494   5.8648578  90.1047835  41.7354483   7.0430059
 102.8918598  42.4807374  17.6719608 103.8436021  42.5805472  17.6931832
 102.7222048  41.6885643  18.1817692 100.9132977  39.5662957  17.8579009
 100.3182910  39.8467970  17.1625497 100.6282674  40.0556858  18.6295750
 105.3706676  45.7013494  16.7861907 105.3382996  44.7629495  16.9721591
 105.9807299  45.7797531  16.0527732 105.5201164  42.4924537  16.8320191
 105.0040213  41.7082994  16.6450119 106.4041113  42.1643254  16.9966710
  97.0928699  48.6227293  24.2889768  98.0131709  48.8005892  24.4829815
  97.0578282  47.6783338  24.1369468  86.3110864  43.8165887  13.2143043
  85.9913649  42.9631195  12.9217417  85.7644292  44.0314465  13.9701010
  90.0890772  46.5328328  16.9312550  90.3076781  47.4645435  16.9500583
  90.5016546  46.1736302  17.7167353  94.9618637  42.1061533  26.3215299
  94.8615364  43.0555890  26.2527390  94.7440179  41.7779772  25.4491369
  86.1799124  47.4368798  15.1836165  85.4862596  47.0222751  14.6706119
  86.9272115  47.4789335  14.5869584  94.8249907  45.5358672  25.1380360
  94.3416989  46.3359032  25.3444249  94.9110846  45.5466617  24.1847804
  88.0935867  47.3687052  13.0602180  88.0706555  47.4674739  12.1084063
  88.4036503  48.2152203  13.3819346  90.7523245  49.4263207  17.1748794
  91.7066498  49.3947149  17.1078726  90.5535768  48.9653831  17.9899020
  91.3422627  47.9964323  19.7419592  92.1615516  48.4908402  19.7654429
  91.6159434  47.0796291  19.7137159  89.1073473  54.9682826  14.1918992
  88.9727941  54.2083227  13.6256990  88.6905536  55.6923726  13.7247781
  92.2642599  55.8652143  14.4037434  92.1474983  56.8097576  14.3016125
  91.4435046  55.5625705  14.7923234  86.5957541  42.3302457  20.4411789
  87.2416405  41.8201411  20.9299014  86.3874692  43.0671139  21.0155214
  99.1210933  49.3983304  25.9403929  99.9902093  49.5723957  25.5790564
  98.6417685  50.2177721  25.8179659  93.2897113  56.5180405  17.6193363
  94.1924360  56.5504016  17.9359858  93.0634483  55.5880856  17.6339699
  95.0450715  55.2711392  14.2803442  94.0946346  55.2713254  14.1667814
  95.3483202  54.5244126  13.7639476  90.9355032  39.4770074  24.5386803
  91.7986494  39.1206879  24.7490127  90.3620443  39.1383969  25.2262207
 104.7920159  64.9971322  20.1876118 104.5010025  65.9016953  20.0722784
 105.4277144  65.0387850  20.9020188 105.7176366  62.3748170  16.7777478
 106.3139938  62.1504193  16.0634441 105.7751338  61.6332916  17.3802926
 100.5631337  60.7779808  14.0506405 100.6923718  61.0314287  14.9645817
  99.8828788  61.3707516  13.7311060 105.4794426  61.4290377  22.3676213
 106.2209111  61.9675421  22.0911037 104.7731412  62.0556665  22.5247765
 104.2155790  58.5830025  23.1691523 103.5854451  59.2646306  23.4026920
 104.1091878  58.4713106  22.2244662  99.5100762  58.2501821  14.0957448
  98.7199816  58.5059349  13.6197558 100.0012010  59.0650159  14.2009488
  97.7938465  58.5032311  16.5272438  98.0446504  59.3879321  16.7930014
  98.3298014  58.3236913  15.7547530 103.4936533  52.8850791  25.5316774
 103.1003478  52.3316989  26.2064419 104.3102673  53.1961369  25.9223292
 101.5545832  59.4865037  21.4015261 101.4399347  58.5850294  21.7022360
 100.6990349  59.7328734  21.0500077 105.6801083  52.7833158  14.3716728
 106.5454080  52.5875966  14.0122617 105.7478592  52.5543509  15.2986084
 103.2863402  55.0135365  11.7433094 103.8607154  54.7910547  11.0106287
 103.8734384  55.0824060  12.4961696 103.8576837  56.0732540  16.3846855
 104.4976216  55.9321299  15.6869819 103.0254367  55.7867054  16.0085457
 100.8605453  56.0432865  11.1619842 101.1212270  56.9578198  11.0529003
 101.6822625  55.5757308  11.3116455 102.3330378  57.4570622  18.3318667
 103.0053432  57.2487984  17.6831315 101.5060165  57.2592708  17.8923899
 102.7357876  60.7313225  19.0921104 102.5977674  59.9993464  19.6932643
 103.6462799  60.6422125  18.8105291 105.3640176  60.4433185  18.5804783
 106.0739795  59.8026377  18.5391402 105.3209485  60.6946079  19.5030964
 104.0769110  57.4298403  20.4000423 103.5406467  56.9789141  21.0522019
 103.4885819  57.5644311  19.6570887  95.0073509  61.6764214  13.0568394
  95.6944549  61.3625944  12.4689409  94.8521638  62.5805578  12.7835645
  99.8108232  56.5654410  17.4853417  99.7266420  55.9580080  16.7503827
  98.9890938  57.0563429  17.4862914 104.3956113  67.6522852  19.6750315
 105.0965572  68.2859335  19.8279709 103.9251228  67.9937583  18.9145954
  99.9923831  67.1859207  16.6081418 100.5777268  66.4402895  16.7409322
  99.7948669  67.4963164  17.4918082  94.5841486  59.7564807  15.3285861
  94.6225585  59.2228398  16.1222979  94.0781778  59.2300013  14.7096838
 101.9632248  54.6029348  18.8248403 102.0273574  55.4644178  18.4125801
 101.8999368  53.9903349  18.0920762 101.4384520  56.6752480  22.4721437
 102.0656559  56.2929557  23.0858962 100.5812439  56.4566682  22.8377130
 101.7444310  56.5584906  14.3867341 101.0230896  57.1720873  14.2474814
 102.5337566  57.0942671  14.3083987 104.5470624  53.8939332  20.6607993
 105.0705026  54.1401629  21.4234302 104.3282957  54.7259367  20.2411130
 105.7523169  54.8353027  18.3457663 105.4119989  54.0360840  18.7478343
 105.0462175  55.1354738  17.7734496 103.9278219  58.6121460  14.6076965
 103.7822800  58.9261763  15.5001246 103.4503423  59.2306361  14.0547863
 105.7874602  55.6024008  14.6557854 105.7736171  54.7065102  14.3190152
 106.5047030  55.6094672  15.2896140  98.4023881  61.1526805  17.5464626
  97.8577350  61.9286613  17.6784900  99.2803231  61.4997609  17.3883747
  99.1889903  60.2796701  20.4394783  98.4471639  60.4279336  21.0259413
  98.8682648  60.5404967  19.5761532 104.6752578  55.9970386  24.1335357
 104.7240733  56.8732509  23.7513127 105.2175092  55.4547779  23.5607000
  97.1504619  59.1457804  13.2143043  96.8307403  58.2923113  12.9217417
  96.6038047  59.3606383  13.9701010 100.9284526  61.8620245  16.9312550
 101.1470536  62.7937353  16.9500583 101.3410300  61.5028220  17.7167353
 105.8012392  57.4353451  26.3215299 105.7009118  58.3847808  26.2527390
 105.5833934  57.1071690  25.4491369  97.0192879  62.7660716  15.1836165
  96.3256350  62.3514669  14.6706119  97.7665870  62.8081252  14.5869584
 105.6643662  60.8650590  25.1380360 105.1810743  61.6650950  25.3444249
 105.7504601  60.8758535  24.1847804 101.5916999  64.7555125  17.1748794
 102.5460253  64.7239067  17.1078726 101.3929523  64.2945748  17.9899020
 102.1816381  63.3256241  19.7419592 103.0009270  63.8200319  19.7654429
 102.4553189  62.4088209  19.7137159  97.4351295  57.6594375  20.4411789
  98.0810159  57.1493329  20.9299014  97.2268447  58.3963056  21.0155214
 101.7748786  54.8061992  24.5386803 102.6380248  54.4498796  24.7490127
 101.2014197  54.4675886  25.2262207   2.3839259  54.2699854  79.5721164
   1.6302968  53.7007252  79.4165168   2.5186801  54.2362519  80.5191798
   2.7945674  54.4275464  82.3041408   3.5249063  54.1660752  82.8649111
   2.1852620  53.6904186  82.3443476   2.3865858  68.7717894  81.7222668
   3.0244268  68.6524641  81.0186008   2.2686701  69.7198738  81.7810620
   1.9407126  66.4969347  78.7975876   2.7270215  66.0788771  78.4466293
   2.2045830  67.4015440  78.9657524   2.1117204  71.9342198  73.4964532
   1.4763037  72.0076824  74.2085437   1.7814610  72.5235797  72.8183612
   7.3415553  66.4344581  79.7008854   8.0740725  65.8643797  79.9346684
   6.5854909  66.0466181  80.1415360   4.8640974  60.1466155  84.1603463
   4.5324298  61.0161566  83.9364678   4.2686587  59.8302439  84.8397493
   1.3572493  72.3478701  83.5599376   1.0573216  73.2503740  83.4515183
   1.0123553  72.0810884  84.4120528   4.7569637  64.8661241  81.2396813
   3.8486514  64.7976649  80.9455574   4.7057233  65.3433186  82.0678638
   6.6231283  63.0677679  83.0174687   5.9805664  63.3610212  82.3714481
   6.1186212  62.9530600  83.8227883   4.2771447  66.8140853  73.7060546
   5.1889303  67.0468239  73.5308244   3.7681094  67.3977897  73.1435625
   2.5612215  71.2365480  87.3421839   2.9695571  70.7947891  86.5976471
   1.8389476  70.6618108  87.5956032   2.8841029  71.7966671  81.0974127
   2.2549892  71.9612385  80.3950195   2.4966691  72.2108281  81.8685092
   6.7630261  72.7321109  78.4518491   6.0781299  73.1120010  77.9015525
   6.8474111  73.3416435  79.1850439   2.0642730  63.8342455  86.3736569
   1.8203662  64.5884516  85.8370845   2.3402661  64.2127803  87.2083816
   4.0181193  70.3781068  85.0513835   4.2298088  71.0212828  84.3748216
   3.9710941  69.5443384  84.5835765   1.6207422  62.9898888  81.9550407
   0.7591901  63.2880142  82.2467144   1.6469856  63.2069287  81.0231440
   5.1327021  73.2553023  83.2236192   5.9544465  72.8533211  82.9418874
   5.1289424  73.1521257  84.1752308  13.2233014  69.5991772  79.5721164
  12.4696722  69.0299170  79.4165168  13.3580555  69.5654436  80.5191798
   1.9624105  57.9935736  83.7774776   1.6188375  58.8837378  83.7013887
   2.3303068  57.8037394  82.9144361   1.9274388  67.9844347  72.2847212
   1.4121012  68.7548952  72.5235599   1.6551697  67.3109483  72.9080273
   1.0420646  60.3640391  81.7424010   0.5385441  60.3270526  80.9291815
   1.3351253  61.2733134  81.8020666   6.9008662  70.7376702  74.2200385
   6.1238105  70.3987861  73.7755547   7.5800143  70.7429325  73.5455350
   1.7160691  65.8571439  74.1106993   1.4110827  66.1717588  74.9617136
   2.6691133  65.9352859  74.1534326   5.1399969  70.2110683  80.8766993
   4.4823644  70.9009944  80.9647122   5.9440368  70.6007115  81.2200979
   3.9505428  68.5655056  78.9270935   4.4637310  69.1985047  79.4292644
   4.6006652  67.9656251  78.5614295   1.2127802  78.5439380  71.6831606
   0.5389501  78.8471077  72.2916564   1.5993624  79.3468460  71.3337063
   1.2121307  67.4395927  76.3031956   1.9593126  67.9517324  75.9939078
   1.4812896  67.1179980  77.1636349   4.7167224  73.5461057  77.0550077
   4.2629551  72.7051967  77.1115268   4.0861191  74.1822455  77.3924858
   3.6600144  64.4753043  78.2850745   2.9222901  63.9630429  78.6160987
   3.9126917  64.0353425  77.4734022   3.1600163  75.3837554  77.9899896
   3.4523138  75.9442611  77.2712261   3.6698784  75.6766115  78.7453055
   3.7611771  57.2529295  78.8792514   4.0670648  56.3926659  78.5918429
   4.4864376  57.8446915  78.6791508   1.5699422  66.6301972  85.9773978
   1.9248810  66.8573446  86.8368444   2.2171554  66.9620349  85.3551233
   7.2997159  69.7520408  76.6823307   7.1615058  69.9422004  75.7544496
   6.9433378  70.5139791  77.1391358   7.3266539  71.8196935  81.6934578
   7.7603046  71.7272224  82.5417632   8.0398120  71.7954436  81.0554594
   8.1882089  71.8620636  84.2267464   8.3817979  72.7666446  84.4726739
   8.0882707  71.4028055  85.0606049   3.3035272  70.3347593  70.2179046
   2.6864443  69.6094421  70.1212099   2.8351761  71.0956953  69.8746120
   4.9589404  75.0446501  87.8784826   4.9001950  74.3605721  87.2115409
   5.3608922  75.7865491  87.4265452   4.9606811  73.0086085  86.1098806
   4.0733590  72.6712007  86.2325205   5.5305362  72.2769116  86.3467571
   1.5894394  62.7153937  79.2297076   2.0863094  61.9623899  78.9098146
   0.8181376  62.7518254  78.6640285   9.4424152  68.4194303  80.8715368
   9.4314028  69.3019018  80.5009301   8.5741531  68.0665853  80.6769905
   2.6724175  71.4725624  76.8035500   1.7380454  71.5927087  76.6340204
   2.8500843  70.5698091  76.5395509   6.0596726  67.3142944  77.3385534
   6.5257179  68.1470935  77.2645836   6.5104227  66.8487925  78.0430792
   4.1272957  73.6586765  74.3371686   4.4032801  73.5443359  75.2465560
   3.2577456  73.2604250  74.2983859   4.0313389  59.6823531  81.3776435
   3.1176469  59.9127757  81.5458642   4.4606491  59.7661975  82.2290467
   3.8019848  67.8713422  83.8776329   3.1491298  68.1189330  83.2228782
   4.1800227  67.0577561  83.5438806   0.7627021  77.9073116  77.9804499
   0.9449416  77.0894772  78.4432252   1.5860007  78.1240808  77.5429389
   1.0969187  76.8341301  75.2419548   1.6256953  76.3233755  74.6289710
   1.3597407  76.5183831  76.1065081   1.7298591  77.8682137  81.5863664
   1.6049730  77.0671876  81.0774610   2.3877682  78.3628330  81.0977634
   3.7933499  75.6691157  83.2143214   2.8463835  75.5496508  83.1421541
   4.1416272  74.7813655  83.2969476   0.7979932  75.4643873  79.4147567
   0.6504895  74.5360580  79.5955137   1.6233426  75.4863964  78.9304642
   4.4014054  76.2872432  80.5012439   5.3260602  76.0815293  80.3636890
   4.2329358  76.0388833  81.4101781   4.1909371  76.8058099  75.8574531
   4.3646248  76.2404521  75.1048383   4.6838262  77.6058994  75.6754021
  10.0448762  69.5694522  77.4764831  10.4879908  68.8201847  77.0783954
   9.1675272  69.5604658  77.0938563   5.1784543  76.1224863  72.9571429
   5.8735448  76.7431556  73.1758744   5.5207693  75.2720215  73.2323807
   7.0775966  73.5724569  74.4858760   7.6027290  73.9111842  73.7608080
   6.9898319  72.6371584  74.3021894   6.8867747  71.0549939  87.1042686
   6.9365752  70.8899946  88.0458209   6.7781671  70.1877198  86.7140567
   4.1771510  67.0380867  88.4201993   5.0781372  66.8987332  88.1285991
   4.2519484  67.2035322  89.3600170   8.3885944  73.4746880  87.3484708
   8.0970752  73.8376861  88.1848169   7.7758075  72.7613889  87.1698040
   9.5881626  71.0399760  79.8687278  10.4228518  71.4789564  80.0324838
   9.7240755  70.5638413  79.0495524   6.6373132  68.5979495  85.8164766
   7.1127254  68.7907141  85.0083617   5.7138698  68.6538681  85.5708150
   1.2153349  60.6327339  84.7820600   1.7335293  61.3688366  84.4567088
   0.8608482  60.9391332  85.6167359   1.4665943  57.0527621  80.3021496
   1.7467697  56.3850810  80.9281923   2.2516550  57.2456717  79.7896160
   5.3374801  65.4745255  84.0493071   6.2892224  65.5743353  84.0705296
   5.1678252  64.6823524  84.5591156   3.3589181  62.5600838  84.2352472
   2.7639113  62.8405851  83.5398961   3.0738877  63.0494739  85.0069214
   2.4896671  76.5123765  72.9955105   3.4227344  76.4469327  73.1987980
   2.4019884  77.3480032  72.5369638   5.1184688  75.8289636  69.9559053
   5.0398319  75.4949499  70.8494810   5.9394355  76.3211403  69.9550525
   7.8162879  68.6951375  83.1635371   7.7839199  67.7567376  83.3495055
   8.4263503  68.7735412  82.4301196   7.9657368  65.4862418  83.2093654
   7.4496416  64.7020875  83.0223583   8.8497316  65.1581135  83.3740174
   5.6268094  59.2303434  79.1689467   5.4292916  58.9218522  80.0532799
   6.2367800  59.9565073  79.2987397  13.6339429  69.7567382  82.3041408
  14.3642817  69.4952670  82.8649111  13.0246374  69.0196104  82.3443476
  11.7154726  67.8975244  82.9015859  10.9887890  67.7631209  82.2932351
  11.3002013  68.2052073  83.7072577   1.3841741  59.1112341  76.9185998
   1.9372780  59.5307794  77.5776021   1.6211827  58.1848089  76.9608954
   4.7620548  61.2212866  76.4264663   4.1819217  61.8797670  76.0442715
   4.4956481  60.3990211  76.0152080   3.2124115  60.6217924  78.6285983
   3.7123893  60.7334458  77.8200302   3.8559722  60.3178976  79.2686791
   3.5445426  63.3812956  75.4821011   2.6571281  63.6662607  75.2641206
   3.9599415  63.2206720  74.6348288   6.8959962  63.4059477  79.1975350
   7.6720352  63.8955930  79.4699967   6.1708097  63.8317531  79.6547220
   9.3332521  64.1187096  80.2549291   9.9277012  63.8782832  79.5442599
   9.4059105  63.3994227  80.8822827   2.6888640  73.1457631  69.5769031
   3.3924490  73.3507633  70.1926686   1.9651288  73.7134393  69.8418114
   3.5186450  68.8967492  75.6971301   3.4621651  69.3536044  74.8578933
   4.0714792  68.1358177  75.5194144   7.3291256  64.6857224  76.5221421
   7.0728190  64.2853860  77.3529628   6.7044124  65.4001018  76.3971560
  11.6403594  67.4253297  79.0292712  11.0803152  67.4946487  79.8024274
  11.0347097  67.2494282  78.3092208   4.5975337  73.5840160  71.6267491
   5.4320941  73.1521359  71.4444966   4.4359680  73.4122174  72.5544385
   4.2521229  70.0872273  72.9923830   4.1970033  69.9216545  72.0512274
   3.6267285  70.7948306  73.1486020   1.3769474  56.1823159  76.8255085
   0.6101870  55.6281646  76.9711768   1.7880179  56.2545028  77.6869237
  13.2259612  84.1009811  81.7222668  13.8638022  83.9816559  81.0186008
  13.1080455  85.0490655  81.7810620  10.0349318  84.0537239  81.6584192
   9.6967830  83.9378304  80.7704727  10.9039087  83.6528404  81.6385198
   5.8936134  85.9072716  77.6481083   5.3300999  85.8162653  76.8797371
   5.7788529  85.0872620  78.1283576  11.4735693  89.5743683  72.9595548
  10.8223673  90.1597764  72.5729562  12.2680056  90.1049878  73.0190586
   5.3991320  86.6632821  73.3582683   6.1722196  86.1161808  73.2195558
   5.7516719  87.5277070  73.5697144   8.1632569  85.3686051  83.1550941
   8.7596142  85.1442074  82.4407904   8.2207541  84.6270797  83.7576389
   7.7357598  82.8225487  70.9901132   7.9883119  82.3007008  70.2284595
   6.7982157  82.6591632  71.0927816  12.7800881  81.8261265  78.7975876
  13.5663970  81.4080688  78.4466293  13.0439585  82.7307357  78.9657524
  12.9510958  87.2634115  73.4964532  12.3156791  87.3368742  74.2085437
  12.6208364  87.8527714  72.8183612  18.1809308  81.7636498  79.7008854
  18.9134480  81.1935715  79.9346684  17.4248663  81.3758099  80.1415360
   7.4553887  84.7253593  73.1925507   7.3390145  84.0498496  73.8606592
   7.5656146  84.2385967  72.3757660   9.7985428  84.1863740  76.8972197
   9.4343635  83.6594361  77.6085118  10.6552543  83.7962209  76.7238682
  15.7034728  75.4758072  84.1603463  15.3718053  76.3453483  83.9364678
  15.1080342  75.1594356  84.8397493   9.4390914  79.2153640  71.8933545
   9.6065317  80.0833876  72.2604016   9.2488084  79.3780921  70.9694834
  12.1966248  87.6770618  83.5599376  11.8966971  88.5795657  83.4515183
  11.8517307  87.4102802  84.4120528   5.6478729  84.1284415  79.5936080
   4.7229226  83.9960629  79.8013772   5.8963142  84.9078635  80.0906022
  15.5963391  80.1953159  81.2396813  14.6880269  80.1268567  80.9455574
  15.5450987  80.6725104  82.0678638   9.4180135  81.6711297  72.8780212
   9.2979761  82.1168348  73.7165692   8.7232724  82.0196615  72.3193750
   3.0087540  83.7717689  80.4279869   3.1379921  84.0252168  81.3419281
   2.3284991  84.3645397  80.1084524  17.4625038  78.3969597  83.0174687
  16.8199418  78.6902130  82.3714481  16.9579966  78.2822517  83.8227883
  15.1165202  82.1432770  73.7060546  16.0283058  82.3760157  73.5308244
  14.6074849  82.7269814  73.1435625  13.4005969  86.5657398  87.3421839
  13.8089325  86.1239809  86.5976471  12.6783231  85.9910026  87.5956032
   9.7537039  81.5030005  84.7155396  10.5998234  81.9269418  84.8590045
   9.6935677  80.8463629  85.4093959  13.7234784  87.1258589  81.0974127
  13.0943646  87.2904303  80.3950195  13.3360446  87.5400198  81.8685092
  17.6024016  88.0613027  78.4518491  16.9175054  88.4411928  77.9015525
  17.6867865  88.6708353  79.1850439  12.9036485  79.1634373  86.3736569
  12.6597416  79.9176434  85.8370845  13.1796415  79.5419721  87.2083816
  14.8574947  85.7072986  85.0513835  15.0691843  86.3504745  84.3748216
  14.8104696  84.8735302  84.5835765  12.4601176  78.3190806  81.9550407
  11.5985655  78.6172060  82.2467144  12.4863611  78.5361205  81.0231440
   9.2762746  86.8632997  78.3624213   9.7401091  87.1420700  77.5728835
   9.0119544  85.9616441  78.1797303   6.1686827  86.4104478  81.3003976
   6.7388184  86.8391747  80.6621460   6.7594939  86.1287063  81.9988162
   8.2131632  82.9856149  75.1713778   8.9155675  83.4377193  75.6387704
   7.8812260  82.3439968  75.7993671   1.9556966  81.2439702  80.4730911
   1.1656020  81.4997230  79.9971022   2.4468213  82.0588040  80.5782952
  15.9720775  88.5844941  83.2236192  16.7938219  88.1825128  82.9418874
  15.9683178  88.4813175  84.1752308   3.9071711  81.6084281  77.4314388
   3.1102874  81.7202975  77.9497884   3.6797303  81.9470933  76.5655279
  24.0626768  84.9283689  79.5721164  23.3090477  84.3591088  79.4165168
  24.1974310  84.8946354  80.5191798   9.4525396  89.7997092  75.2475883
   9.3171071  90.6448627  75.6760731   9.9935209  90.0016369  74.4841817
   2.9054794  87.3172530  75.8203808   3.4179314  88.1115780  75.9709373
   3.5577507  86.6198820  75.7537410   4.7149678  90.4338286  77.9026561
   4.8916307  91.3556251  77.7147545   5.5106512  90.1196705  78.3320941
   8.8560697  77.2946551  89.5010495   9.5970410  77.8953704  89.4214957
   9.0878620  76.5524188  88.9428537  12.8017860  73.3227654  83.7774776
  12.4582129  74.2129295  83.7013887  13.1696823  73.1329311  82.9144361
   0.8703711  85.6461184  76.5963379   1.7078933  86.0558192  76.3797086
   1.0481978  84.7060626  76.5663572  12.7668143  83.3136265  72.2847212
  12.2514766  84.0840869  72.5235599  12.4945451  82.6401401  72.9080273
  10.3515254  78.1585966  77.3432450   9.4956850  77.7692816  77.1638089
  10.7642205  78.2377926  76.4832235   8.1257286  75.7771038  80.7490191
   8.9910283  75.5813847  80.3896081   8.1934795  75.5481390  81.6759548
  17.7402417  86.0668619  74.2200385  16.9631860  85.7279779  73.7755547
  18.4193898  86.0721243  73.5455350  12.5554446  81.1863357  74.1106993
  12.2504581  81.5009506  74.9617136  13.5084888  81.2644777  74.1534326
  11.0000878  87.3453580  75.7599947  10.4722239  86.6106340  75.4473184
  10.4988380  88.1228256  75.5139915  15.9793724  85.5402601  80.8766993
  15.3217398  86.2301862  80.9647122  16.7834123  85.9299033  81.2200979
   5.7319605  78.0073246  78.1206558   6.3063357  77.7848428  77.3879751
   6.3190588  78.0761941  78.8735160  14.7899183  83.8946973  78.9270935
  15.3031064  84.5276965  79.4292644  15.4400406  83.2948169  78.5614295
   6.0589192  80.0377707  72.1402443   5.2226505  80.3752394  72.4611718
   5.9193962  79.9026687  71.2029580   8.0342273  74.8814495  76.8481628
   7.3806685  74.5663512  76.2238242   7.9922747  74.2590236  77.5741451
   9.1453478  85.1633790  68.7634920   8.2380540  84.9323044  68.9626069
   9.6424510  84.3671410  68.9508901  12.0521557  93.8731298  71.6831606
  11.3783256  94.1762994  72.2916564  12.4387379  94.6760378  71.3337063
  11.2680013  81.3696429  81.1729275  10.3502575  81.5911376  81.0150963
  11.6840157  81.4442739  80.3140983  12.0515061  82.7687845  76.3031956
  12.7986880  83.2809242  75.9939078  12.3206651  82.4471897  77.1636349
  10.3241711  85.2646385  73.2858910   9.4152931  84.9805418  73.3831380
  10.3536795  85.6845464  72.4262217  15.5560979  88.8752975  77.0550077
  15.1023306  88.0343885  77.1115268  14.9254945  89.5114373  77.3924858
  14.4993898  79.8044961  78.2850745  13.7616655  79.2922347  78.6160987
  14.7520672  79.3645342  77.4734022  13.9993918  90.7129471  77.9899896
  14.2916892  91.2734529  77.2712261  14.5092539  91.0058032  78.7453055
  14.6005526  72.5821213  78.8792514  14.9064402  71.7218576  78.5918429
  15.3258130  73.1738833  78.6791508   8.8726605  82.8775006  79.3868705
   8.9275215  81.9248842  79.3111182   8.0617807  83.0334445  79.8710004
  10.0217799  86.8055129  70.6246988   9.5837229  86.0890988  70.1652626
  10.7628240  87.0331244  70.0632080   6.8118965  81.4952066  77.1459084
   5.9986831  81.7946236  77.5524276   7.3077959  81.1007754  77.8633566
   8.9627543  91.4909823  79.0793349   8.9203722  91.7170669  78.1501881
   9.8790242  91.2573197  79.2279150  12.4093177  81.9593890  85.9773978
  12.7642565  82.1865363  86.8368444  13.0565308  82.2912267  85.3551233
  18.1390914  85.0812326  76.6823307  18.0008812  85.2713922  75.7544496
  17.7827133  85.8431709  77.1391358   6.3033040  79.0670421  82.7620319
   6.9432419  78.9259180  82.0643282   5.4710571  78.7804935  82.3858921
  18.1660294  87.1488853  81.6934578  18.5996800  87.0564142  82.5417632
  18.8791874  87.1246353  81.0554594   7.0793344  88.3672852  78.8755311
   7.8733942  87.8723172  78.6737886   6.3685036  87.8390715  78.5123017
  11.8988188  90.7490947  83.2267679  11.9525211  91.3181883  83.9945395
  11.0302970  90.9192832  82.8621716   3.3876107  82.5115933  74.9515064
   2.4573696  82.4500389  75.1685026   3.4833579  81.9891886  74.1551705
   3.3061656  79.0370746  77.5393306   3.5668474  79.9516079  77.4302466
   4.1278829  78.5695189  77.6889919   4.7786582  80.4508503  84.7092130
   5.4509635  80.2425865  84.0604779   3.9516368  80.2530589  84.2697363
  19.0275843  87.1912554  84.2267464  19.2211733  88.0958364  84.4726739
  18.9276461  86.7319973  85.0606049  10.6812154  77.0770444  86.7257791
  10.0340069  77.7760394  86.6322268  11.4513169  77.5106588  87.0934039
  10.8576288  84.9151209  84.7854611  11.7868348  85.0662369  84.6123578
  10.4367318  85.0035230  83.9303257   9.6564620  88.9401874  82.5553149
   9.5175706  88.5720658  83.4279087   8.8679216  89.4549513  82.3837106
  11.2069835  88.3183476  79.9441986  10.8719668  88.2784246  80.8399636
  10.7073781  87.6528192  79.4712397  14.1429027  85.6639511  70.2179046
  13.5258197  84.9386339  70.1212099  13.6745515  86.4248871  69.8746120
  15.7983158  90.3738419  87.8784826  15.7395705  89.6897639  87.2115409
  16.2002677  91.1157409  87.4265452   5.9327573  79.8824935  69.3400350
   5.0557039  79.7613736  68.9762597   6.4085326  79.0911013  69.0879239
  15.8000566  88.3378003  86.1098806  14.9127344  88.0003925  86.2325205
  16.3699117  87.6061034  86.3467571   9.1191499  92.2351225  76.5862871
   8.3359021  92.7772905  76.6801095   9.8184244  92.7525205  76.9857112
  12.4288149  78.0445855  79.2297076  12.9256848  77.2915817  78.9098146
  11.6575130  78.0810171  78.6640285  20.2817906  83.7486220  80.8715368
  20.2707782  84.6310936  80.5009301  19.4135286  83.3957771  80.6769905
  13.5117929  86.8017542  76.8035500  12.5774208  86.9219004  76.6340204
  13.6894598  85.8990009  76.5395509   9.0123118  80.1863238  78.9568761
   8.6420905  79.6334278  79.6449666   9.5082210  79.5821371  78.4043761
  16.8990481  82.6434861  77.3385534  17.3650933  83.4762853  77.2645836
  17.3497981  82.1779843  78.0430792  14.9666712  88.9878683  74.3371686
  15.2426556  88.8735277  75.2465560  14.0971211  88.5896167  74.2983859
  14.8707144  75.0115448  81.3776435  13.9570223  75.2419675  81.5458642
  15.3000245  75.0953892  82.2290467  14.6413602  83.2005340  83.8776329
  13.9885052  83.4481248  83.2228782  15.0193982  82.3869478  83.5438806
  11.6020776  93.2365033  77.9804499  11.7843170  92.4186689  78.4432252
  12.4253762  93.4532726  77.5429389  11.9362941  92.1633218  75.2419548
  12.4650708  91.6525673  74.6289710  12.1991161  91.8475749  76.1065081
   4.4088451  77.5967228  85.2021867   4.4729778  78.4582059  84.7899265
   4.3455571  76.9841230  84.4694225  12.5692345  93.1974054  81.5863664
  12.4443485  92.3963794  81.0774610  13.2271436  93.6920248  81.0977634
   4.1900513  79.5522787  80.7640805   3.4687099  80.1658754  80.6248278
   4.9793769  80.0880552  80.6857450  14.6327254  90.9983074  83.2143214
  13.6857589  90.8788425  83.1421541  14.9810027  90.1105572  83.2969476
   6.9926827  76.8877213  87.0381456   7.5161229  77.1339510  87.8007766
   6.7739160  77.7197248  86.6184594   2.3894108  79.1580888  74.9052581
   2.0606814  78.2778267  74.7227687   2.7433479  79.1028556  75.7928970
  11.6373687  90.7935791  79.4147567  11.4898649  89.8652498  79.5955137
  12.4627180  90.8155881  78.9304642   5.5035931  79.4453858  75.2728059
   5.8432004  79.9739779  74.5506667   5.9508052  79.7834264  76.0486625
  15.2407809  91.6164349  80.5012439  16.1654356  91.4107211  80.3636890
  15.0723112  91.3680750  81.4101781   8.1979372  77.8290908  84.7231127
   7.8576192  77.0298721  85.1251807   7.4918378  78.1292619  84.1507960
   8.8495844  74.9140221  83.1758450   9.6721913  74.4400699  83.0537340
   9.0933907  75.6930704  83.6757136   7.4904078  77.9428479  73.4721352
   8.2112441  78.3209732  72.9685068   6.8669382  78.6617356  73.5756329
  11.6335201  78.6473628  74.4079684  11.8498816  79.5298266  74.1068512
  11.1529268  78.2559842  73.6785326   6.3734423  81.6059341  80.9850428
   6.2279003  81.9199644  81.8774710   5.8959626  82.2244242  80.4321327
   8.2330806  78.5961889  81.0331318   8.2192374  77.7002983  80.6963616
   8.9503234  78.6032553  81.6669604  10.0856936  79.0299230  83.0784445
   9.8274714  79.9516300  83.0768776   9.5541977  78.6329664  83.7684910
  15.0303125  92.1350017  75.8574531  15.2040003  91.5696439  75.1048383
  15.5232016  92.9350912  75.6754021   7.6367701  77.4776270  76.3018888
   7.7583613  76.5492916  76.5009776   7.3469744  77.4914956  75.3897204
  10.5058892  75.1631180  79.4385608  10.5280589  75.2270513  78.4837588
  10.9226951  74.3235689  79.6326114  20.8842516  84.8986440  77.4764831
  21.3273662  84.1493765  77.0783954  20.0069026  84.8896576  77.0938563
  16.0178297  91.4516781  72.9571429  16.7129202  92.0723474  73.1758744
  16.3601448  90.6012132  73.2323807  17.9169721  88.9016487  74.4858760
  18.4421045  89.2403759  73.7608080  17.8292073  87.9663502  74.3021894
   7.0484253  90.5126479  80.9176315   6.4264263  89.8497184  80.6178543
   7.7189120  90.5387611  80.2349962  17.7261502  86.3841857  87.1042686
  17.7759507  86.2191864  88.0458209  17.6175425  85.5169116  86.7140567
   6.6097760  89.0630402  74.3934775   6.7585881  89.7465867  73.7401448
   7.4164204  89.0435492  74.9084231  15.0165264  82.3672785  88.4201993
  15.9175127  82.2279250  88.1285991  15.0913239  82.5327239  89.3600170
   9.3508069  79.7439639  87.2655179   8.4811379  80.0373205  86.9937768
   9.5867550  80.3280084  87.9862443  19.2279699  88.8038798  87.3484708
  18.9364507  89.1668779  88.1848169  18.6151830  88.0905806  87.1698040
  20.4275381  86.3691678  79.8687278  21.2622272  86.8081482  80.0324838
  20.5634510  85.8930331  79.0495524  17.4766887  83.9271413  85.8164766
  17.9521008  84.1199059  85.0083617  16.5532452  83.9830599  85.5708150
   4.3650393  85.0895580  75.3995844   4.1196435  84.1857910  75.5976054
   4.5346308  85.0912730  74.4575322  12.0547103  75.9619256  84.7820600
  12.5729047  76.6980283  84.4567088  11.7002236  76.2683250  85.6167359
   3.6346041  80.8223938  72.8982006   2.9415286  80.8968293  72.2422042
   3.3897793  80.0584281  73.4203523  12.3059697  72.3819539  80.3021496
  12.5861451  71.7142728  80.9281923  13.0910304  72.5748634  79.7896160
  10.1093166  91.5578533  71.8646523   9.5367133  92.1768720  71.4116995
  10.6825960  92.1077894  72.3986445  16.1768556  80.8037173  84.0493071
  17.1285979  80.9035271  84.0705296  16.0072006  80.0115441  84.5591156
  14.1982935  77.8892756  84.2352472  13.6032867  78.1697769  83.5398961
  13.9132632  78.3786657  85.0069214  13.3290426  91.8415683  72.9955105
  14.2621099  91.7761245  73.1987980  13.2413639  92.6771950  72.5369638
  15.9578442  91.1581553  69.9559053  15.8792074  90.8241417  70.8494810
  16.7788109  91.6503321  69.9550525  18.6556634  84.0243293  83.1635371
  18.6232954  83.0859293  83.3495055  19.2657257  84.1027329  82.4301196
  10.4939964  82.8939346  69.2062575  11.4399069  82.7645554  69.2750993
  10.1154209  82.1554007  69.6832003  18.8051122  80.8154336  83.2093654
  18.2890171  80.0312793  83.0223583  19.6891071  80.4873053  83.3740174
  16.4661849  74.5595352  79.1689467  16.2686670  74.2510440  80.0532799
  17.0761555  75.2856990  79.2987397  24.4733183  85.0859299  82.3041408
  25.2036572  84.8244588  82.8649111  23.8640129  84.3488021  82.3443476
  22.5548481  83.2267162  82.9015859  21.8281644  83.0923127  82.2932351
  22.1395767  83.5343991  83.7072577   8.6782882  80.8189322  69.1417460
   7.7714337  80.5222435  69.2180174   8.9558863  80.5219140  68.2751747
  10.2944947  75.3626212  75.2961702   9.4845676  75.0173297  75.6716948
  10.9829364  75.0533755  75.8849313  12.2235496  74.4404258  76.9185998
  12.7766534  74.8599712  77.5776021  12.4605582  73.5140007  76.9608954
   7.4481666  77.6776257  69.2829440   8.3100830  78.0031155  69.5425257
   7.6332010  76.8907753  68.7702505  15.6014303  76.5504784  76.4264663
  15.0212972  77.2089588  76.0442715  15.3350235  75.7282128  76.0152080
  14.0517869  75.9509841  78.6285983  14.5517647  76.0626376  77.8200302
  14.6953477  75.6470894  79.2686791  14.3839181  78.7104874  75.4821011
  13.4965036  78.9954525  75.2641206  14.7993170  78.5498637  74.6348288
  17.7353717  78.7351395  79.1975350  18.5114107  79.2247847  79.4699967
  17.0101851  79.1609449  79.6547220  20.1726275  79.4479014  80.2549291
  20.7670766  79.2074750  79.5442599  20.2452859  78.7286145  80.8822827
  13.5282394  88.4749549  69.5769031  14.2318244  88.6799551  70.1926686
  12.8045043  89.0426311  69.8418114  14.3580204  84.2259410  75.6971301
  14.3015406  84.6827961  74.8578933  14.9108547  83.4650095  75.5194144
  18.1685010  80.0149142  76.5221421  17.9121945  79.6145777  77.3529628
  17.5437878  80.7292936  76.3971560  22.4797348  82.7545215  79.0292712
  21.9196906  82.8238404  79.8024274  21.8740852  82.5786200  78.3092208
  15.4369092  88.9132078  71.6267491  16.2714696  88.4813276  71.4444966
  15.2753434  88.7414092  72.5544385  15.0914984  85.4164191  72.9923830
  15.0363788  85.2508463  72.0512274  14.4661039  86.1240224  73.1486020
   8.4011109  74.9172300  72.5709149   8.3889779  75.8614140  72.7277419
   9.2934531  74.7342446  72.2768610  12.2163229  71.5115077  76.8255085
  11.4495624  70.9573563  76.9711768  12.6273934  71.5836946  77.6869237
  23.6194635  97.1553183  78.7975876  24.4057724  96.7372606  78.4466293
  23.8833339  98.0599275  78.9657524  29.0203062  97.0928416  79.7008854
  29.7528234  96.5227633  79.9346684  28.2642418  96.7050016  80.1415360
  26.5428483  90.8049990  84.1603463  26.2111807  91.6745401  83.9364678
  25.9474096  90.4886274  84.8397493  20.2784669  94.5445557  71.8933545
  20.4459071  95.4125794  72.2604016  20.0881838  94.7072839  70.9694834
  26.4357146  95.5245076  81.2396813  25.5274023  95.4560485  80.9455574
  26.3844742  96.0017021  82.0678638  20.2573890  97.0003215  72.8780212
  20.1373515  97.4460265  73.7165692  19.5626478  97.3488532  72.3193750
  28.3018792  93.7261515  83.0174687  27.6593173  94.0194048  82.3714481
  27.7973721  93.6114435  83.8227883  25.9558956  97.4724688  73.7060546
  26.8676812  97.7052075  73.5308244  25.4468603  98.0561732  73.1435625
  20.5930794  96.8321922  84.7155396  21.4391989  97.2561336  84.8590045
  20.5329431  96.1755547  85.4093959  23.7430239  94.4926291  86.3736569
  23.4991171  95.2468351  85.8370845  24.0190170  94.8711638  87.2083816
  23.2994931  93.6482724  81.9550407  22.4379410  93.9463977  82.2467144
  23.3257365  93.8653123  81.0231440  34.9020523 100.2575607  79.5721164
  34.1484231  99.6883005  79.4165168  35.0368064 100.2238272  80.5191798
  19.6954452  92.6238468  89.5010495  20.4364165  93.2245621  89.4214957
  19.9272374  91.8816106  88.9428537  23.6411614  88.6519571  83.7774776
  23.2975884  89.5421213  83.7013887  24.0090577  88.4621229  82.9144361
  21.1909008  93.4877883  77.3432450  20.3350605  93.0984734  77.1638089
  21.6035960  93.5669844  76.4832235  22.7208155  91.0224226  81.7424010
  22.2172950  90.9854362  80.9291815  23.0138762  91.9316969  81.8020666
  18.9651041  91.1062956  80.7490191  19.8304037  90.9105765  80.3896081
  19.0328550  90.8773308  81.6759548  23.3948200  96.5155274  74.1106993
  23.0898336  96.8301424  74.9617136  24.3478642  96.5936694  74.1534326
  16.5713360  93.3365164  78.1206558  17.1457112  93.1140346  77.3879751
  17.1584342  93.4053859  78.8735160  25.6292937  99.2238891  78.9270935
  26.1424819  99.8568883  79.4292644  26.2794161  98.6240086  78.5614295
  16.8982947  95.3669625  72.1402443  16.0620259  95.7044312  72.4611718
  16.7587717  95.2318605  71.2029580  18.8736028  90.2106413  76.8481628
  18.2200440  89.8955430  76.2238242  18.8316502  89.5882153  77.5741451
  22.1073768  96.6988347  81.1729275  21.1896329  96.9203294  81.0150963
  22.5233911  96.7734657  80.3140983  22.8908816  98.0979762  76.3031956
  23.6380635  98.6101159  75.9939078  23.1600405  97.7763815  77.1636349
  25.3387653  95.1336878  78.2850745  24.6010410  94.6214265  78.6160987
  25.5914426  94.6937260  77.4734022  25.4399280  87.9113130  78.8792514
  25.7458157  87.0510494  78.5918429  26.1651885  88.5030751  78.6791508
  23.2486931  97.2885808  85.9773978  23.6036319  97.5157281  86.8368444
  23.8959063  97.6204185  85.3551233  17.1426795  94.3962339  82.7620319
  17.7826174  94.2551098  82.0643282  16.3104325  94.1096852  82.3858921
  14.1455411  94.3662664  77.5393306  14.4062228  95.2807997  77.4302466
  14.9672583  93.8987106  77.6889919  15.6180336  95.7800421  84.7092130
  16.2903390  95.5717783  84.0604779  14.7910123  95.5822507  84.2697363
  21.5205908  92.4062362  86.7257791  20.8733823  93.1052312  86.6322268
  22.2906924  92.8398506  87.0934039  16.7721327  95.2116853  69.3400350
  15.8950793  95.0905653  68.9762597  17.2479080  94.4202931  69.0879239
  23.2681903  93.3737772  79.2297076  23.7650603  92.6207735  78.9098146
  22.4968885  93.4102089  78.6640285  31.1211661  99.0778138  80.8715368
  31.1101537  99.9602853  80.5009301  30.2529040  98.7249689  80.6769905
  19.8516872  95.5155155  78.9568761  19.4814660  94.9626196  79.6449666
  20.3475964  94.9113289  78.4043761  27.7384235  97.9726779  77.3385534
  28.2044688  98.8054770  77.2645836  28.1891736  97.5071760  78.0430792
  25.7100898  90.3407366  81.3776435  24.7963978  90.5711593  81.5458642
  26.1394000  90.4245810  82.2290467  25.4807357  98.5297258  83.8776329
  24.8278807  98.7773165  83.2228782  25.8587736  97.7161396  83.5438806
  15.2482206  92.9259146  85.2021867  15.3123532  93.7873977  84.7899265
  15.1849326  92.3133148  84.4694225  15.0294268  94.8814704  80.7640805
  14.3080854  95.4950672  80.6248278  15.8187524  95.4172469  80.6857450
  17.8320581  92.2169131  87.0381456  18.3554983  92.4631427  87.8007766
  17.6132915  93.0489166  86.6184594  13.2287863  94.4872805  74.9052581
  12.9000569  93.6070184  74.7227687  13.5827233  94.4320474  75.7928970
  16.3429686  94.7745775  75.2728059  16.6825758  95.3031697  74.5506667
  16.7901806  95.1126181  76.0486625  19.0373127  93.1582826  84.7231127
  18.6969947  92.3590639  85.1251807  18.3312133  93.4584537  84.1507960
  19.6889598  90.2432138  83.1758450  20.5115668  89.7692617  83.0537340
  19.9327662  91.0222622  83.6757136  18.3297833  93.2720397  73.4721352
  19.0506195  93.6501650  72.9685068  17.7063137  93.9909274  73.5756329
  22.4728956  93.9765546  74.4079684  22.6892570  94.8590184  74.1068512
  21.9923023  93.5851759  73.6785326  19.0724560  93.9253807  81.0331318
  19.0586129  93.0294900  80.6963616  19.7896988  93.9324471  81.6669604
  20.9250691  94.3591147  83.0784445  20.6668469  95.2808218  83.0768776
  20.3935731  93.9621582  83.7684910  18.4761456  92.8068187  76.3018888
  18.5977367  91.8784833  76.5009776  18.1863498  92.8206873  75.3897204
  21.3452646  90.4923098  79.4385608  21.3674343  90.5562431  78.4837588
  21.7620705  89.6527606  79.6326114  31.7236271 100.2278357  77.4764831
  32.1667417  99.4785683  77.0783954  30.8462781 100.2188494  77.0938563
  25.8559019  97.6964702  88.4201993  26.7568881  97.5571167  88.1285991
  25.9306993  97.8619157  89.3600170  20.1901824  95.0731557  87.2655179
  19.3205133  95.3665123  86.9937768  20.4261304  95.6572002  87.9862443
  31.2669135 101.6983596  79.8687278  32.1016027 102.1373400  80.0324838
  31.4028264 101.2222249  79.0495524  28.3160641  99.2563330  85.8164766
  28.7914763  99.4490977  85.0083617  27.3926207  99.3122516  85.5708150
  22.8940858  91.2911174  84.7820600  23.4122802  92.0272201  84.4567088
  22.5395991  91.5975167  85.6167359  23.1453452  87.7111457  80.3021496
  23.4255206  87.0434646  80.9281923  23.9304059  87.9040552  79.7896160
  27.0162310  96.1329091  84.0493071  27.9679733  96.2327188  84.0705296
  26.8465761  95.3407359  84.5591156  25.0376690  93.2184674  84.2352472
  24.4426622  93.4989686  83.5398961  24.7526386  93.7078575  85.0069214
  29.4950388  99.3535210  83.1635371  29.4626708  98.4151211  83.3495055
  30.1051012  99.4319247  82.4301196  21.3333719  98.2231263  69.2062575
  22.2792824  98.0937471  69.2750993  20.9547964  97.4845925  69.6832003
  29.6444877  96.1446254  83.2093654  29.1283925  95.3604710  83.0223583
  30.5284825  95.8164970  83.3740174  27.3055603  89.8887269  79.1689467
  27.1080425  89.5802357  80.0532799  27.9155309  90.6148908  79.2987397
  35.3126938 100.4151217  82.3041408  36.0430326 100.1536505  82.8649111
  34.7033883  99.6779939  82.3443476  33.3942235  98.5559080  82.9015859
  32.6675399  98.4215045  82.2932351  32.9789522  98.8635908  83.7072577
  19.5176636  96.1481240  69.1417460  18.6108091  95.8514352  69.2180174
  19.7952617  95.8511058  68.2751747  21.1338702  90.6918129  75.2961702
  20.3239430  90.3465214  75.6716948  21.8223119  90.3825673  75.8849313
  23.0629250  89.7696176  76.9185998  23.6160289  90.1891630  77.5776021
  23.2999336  88.8431924  76.9608954  18.2875421  93.0068175  69.2829440
  19.1494585  93.3323073  69.5425257  18.4725765  92.2199671  68.7702505
  26.4408057  91.8796701  76.4264663  25.8606726  92.5381505  76.0442715
  26.1743990  91.0574046  76.0152080  24.8911624  91.2801759  78.6285983
  25.3911402  91.3918294  77.8200302  25.5347231  90.9762812  79.2686791
  25.2232935  94.0396792  75.4821011  24.3358790  94.3246442  75.2641206
  25.6386924  93.8790555  74.6348288  28.5747471  94.0643313  79.1975350
  29.3507861  94.5539765  79.4699967  27.8495605  94.4901367  79.6547220
  31.0120030  94.7770932  80.2549291  31.6064521  94.5366668  79.5442599
  31.0846614  94.0578062  80.8822827  29.0078765  95.3441059  76.5221421
  28.7515699  94.9437695  77.3529628  28.3831633  96.0584853  76.3971560
  33.3191103  98.0837133  79.0292712  32.7590661  98.1530322  79.8024274
  32.7134606  97.9078117  78.3092208  19.2404864  90.2464218  72.5709149
  19.2283534  91.1906058  72.7277419  20.1328286  90.0634363  72.2768610
  23.0556983  86.8406994  76.8255085  22.2889379  86.2865481  76.9711768
  23.4667688  86.9128863  77.6869237  36.2793035 103.2405048  78.8792514
  36.5851911 102.3802412  78.5918429  37.0045639 103.8322668  78.6791508
  33.9847206 103.0403374  80.3021496  34.2648960 102.3726563  80.9281923
  34.7697813 103.2332470  79.7896160  33.8950738 102.1698912  76.8255085
  33.1283133 101.6157399  76.9711768  34.3061443 102.2420781  77.6869237
   2.3839261  31.2761977  66.2966470   1.6302969  30.7069375  66.1410475
   2.5186802  31.2424641  67.2437105   2.7945676  31.4337587  69.0286715
   3.5249064  31.1722875  69.5894418   2.1852621  30.6966309  69.0688783
   2.3865859  45.7780016  68.4467974   3.0244269  45.6586764  67.7431314
   2.2686702  46.7260860  68.5055926   1.9407127  43.5031470  65.5221182
   2.7270217  43.0850893  65.1711599   2.2045832  44.4077562  65.6902831
   2.1117205  48.9404320  60.2209839   1.4763038  49.0138947  60.9330744
   1.7814611  49.5297919  59.5428918   7.3415555  43.4406703  66.4254161
   8.0740726  42.8705920  66.6591990   6.5854910  43.0528304  66.8660666
   4.8640975  37.1528277  70.8848769   4.5324300  38.0223688  70.6609984
   4.2686588  36.8364561  71.5642800   1.3572494  49.3540823  70.2844682
   1.0573218  50.2565862  70.1760489   1.0123554  49.0873007  71.1365835
   4.7569638  41.8723364  67.9642119   3.8486516  41.8038772  67.6700880
   4.7057234  42.3495308  68.7923945   6.6231285  40.0739802  69.7419993
   5.9805665  40.3672335  69.0959788   6.1186213  39.9592722  70.5473190
   4.2771448  43.8202975  60.4305853   5.1889304  44.0530362  60.2553550
   3.7681095  44.4040019  59.8680931   2.5612216  48.2427603  74.0667145
   2.9695572  47.8010013  73.3221778   1.8389477  47.6680230  74.3201338
   2.8841031  48.8028794  67.8219434   2.2549893  48.9674508  67.1195502
   2.4966693  49.2170403  68.5930398   6.7630262  49.7383231  65.1763798
   6.0781301  50.1182133  64.6260831   6.8474112  50.3478558  65.9095746
   2.0642731  40.8404578  73.0981876   1.8203663  41.5946639  72.5616152
   2.3402662  41.2189926  73.9329123   4.0181194  47.3843190  71.7759141
   4.2298089  48.0274950  71.0993522   3.9710942  46.5505507  71.3081071
   1.6207423  39.9961011  68.6795714   0.7591902  40.2942265  68.9712451
   1.6469858  40.2131410  67.7476746   5.1327022  50.2615146  69.9481499
   5.9544466  49.8595333  69.6664180   5.1289425  50.1583380  70.8997615
  13.2233015  46.6053894  66.2966470  12.4696723  46.0361292  66.1410475
  13.3580556  46.5716559  67.2437105   2.3381358  52.3793663  74.1302933
   2.3199833  53.2002544  73.6383202   3.2601278  52.2547738  74.3553074
   1.9624107  34.9997859  70.5020083   1.6188376  35.8899500  70.4259194
   2.3303069  34.8099516  69.6389668   1.9274389  44.9906470  59.0092518
   1.4121013  45.7611074  59.2480906   1.6551698  44.3171606  59.6325580
   1.0420647  37.3702514  68.4669316   0.5385443  37.3332649  67.6537122
   1.3351254  38.2795256  68.5265973   6.9008664  47.7438824  60.9445692
   6.1238106  47.4049984  60.5000854   7.5800145  47.7491447  60.2700657
   1.7160693  42.8633562  60.8352299   1.4110828  43.1779711  61.6862443
   2.6691135  42.9414982  60.8779632   5.1399970  47.2172806  67.6012300
   4.4823645  47.9072067  67.6892428   5.9440370  47.6069237  67.9446286
   3.9505429  45.5717178  65.6516241   4.4637311  46.2047170  66.1537951
   4.6006653  44.9718374  65.2859601   1.2127804  55.5501503  58.4076913
   0.5389502  55.8533199  59.0161870   1.5993625  56.3530583  58.0582370
   1.2121308  44.4458049  63.0277262   1.9593127  44.9579447  62.7184384
   1.4812897  44.1242102  63.8881656   4.7167225  50.5523180  63.7795384
   4.2629553  49.7114090  63.8360574   4.0861192  51.1884578  64.1170164
   3.6600145  41.4815166  65.0096051   2.9222902  40.9692552  65.3406294
   3.9126919  41.0415547  64.1979328   3.1600165  52.3899676  64.7145202
   3.4523139  52.9504733  63.9957568   3.6698785  52.6828237  65.4698361
   3.7611772  34.2591418  65.6037821   4.0670649  33.3988781  65.3163736
   4.4864377  34.8509038  65.4036815   1.5699424  43.6364095  72.7019285
   1.9248811  43.8635568  73.5613750   2.2171555  43.9682472  72.0796540
   7.2997161  46.7582531  63.4068614   7.1615059  46.9484127  62.4789803
   6.9433379  47.5201914  63.8636665   7.3266540  48.8259058  68.4179885
   7.7603047  48.7334347  69.2662939   8.0398121  48.8016558  67.7799901
   8.1882090  48.8682759  70.9512771   8.3817980  49.7728569  71.1972045
   8.0882708  48.4090178  71.7851356   3.2497199  49.0189501  76.5253651
   3.0982705  48.7900053  75.6083735   3.2401878  49.9760103  76.5384996
   3.3035273  47.3409716  56.9424353   2.6864444  46.6156544  56.8457405
   2.8351762  48.1019076  56.5991427   4.9589405  52.0508624  74.6030133
   4.9001951  51.3667844  73.9360716   5.3608924  52.7927614  74.1510759
   1.5894396  39.7216060  65.9542383   2.0863095  38.9686022  65.6343453
   0.8181377  39.7580376  65.3885592   9.4424153  45.4256425  67.5960674
   9.4314029  46.3081141  67.2254607   8.5741532  45.0727976  67.4015211
   0.9506649  54.5736494  71.9563515   1.6634622  55.2083959  71.8839416
   0.4596678  54.6700360  71.1403516   2.6724176  48.4787747  63.5280806
   1.7380455  48.5989209  63.3585511   2.8500845  47.5760214  63.2640816
   6.0596728  44.3205066  64.0630840   6.5257180  45.1533058  63.9891143
   6.5104228  43.8550048  64.7676099   4.1272959  50.6648887  61.0616992
   4.4032803  50.5505482  61.9710866   3.2577457  50.2666372  61.0229165
   4.0313390  36.6885653  68.1021742   3.1176470  36.9189880  68.2703949
   4.4606492  36.7724097  68.9535774   3.8019849  44.8775545  70.6021636
   3.1491299  45.1251453  69.9474088   4.1800229  44.0639683  70.2684113
   0.7627023  54.9135238  64.7049806   0.9449417  54.0956894  65.1677558
   1.5860009  55.1302931  64.2674696   1.0969188  53.8403423  61.9664854
   1.6256955  53.3295878  61.3535017   1.3597408  53.5245954  62.8310387
   3.4441079  51.7523541  77.1793943   3.9880983  52.3653499  76.6848898
   2.8627924  52.3103120  77.6960956   1.7298592  54.8744259  68.3108971
   1.6049731  54.0733999  67.8019916   2.3877683  55.3690452  67.8222941
   3.7933500  52.6753279  69.9388521   2.8463836  52.5558630  69.8666848
   4.1416274  51.7875777  70.0214782   0.7979934  52.4705995  66.1392873
   0.6504896  51.5422703  66.3200443   1.6233427  52.4926086  65.6549948
   4.4014056  53.2934554  67.2257746   5.3260603  53.0877415  67.0882197
   4.2329359  53.0450955  68.1347087   4.1909372  53.8120222  62.5819837
   4.3646249  53.2466644  61.8293690   4.6838263  54.6121116  62.3999327
  10.0448763  46.5756645  64.2010137  10.4879909  45.8263970  63.8029260
   9.1675273  46.5666781  63.8183869   5.1784544  53.1286986  59.6816736
   5.8735449  53.7493679  59.9004050   5.5207694  52.2782337  59.9569114
   7.0775967  50.5786692  61.2104066   7.6027291  50.9173964  60.4853387
   6.9898320  49.6433707  61.0267201   6.7669873  51.2119595  76.5155264
   5.9765417  51.1943734  75.9759764   6.5303228  51.7507889  77.2704301
   6.8867748  48.0612062  73.8287993   6.9365753  47.8962069  74.7703516
   6.7781672  47.1939321  73.4385874   4.1771511  44.0442990  75.1447300
   5.0781374  43.9049454  74.8531297   4.2519485  44.2097444  76.0845477
   8.3885945  50.4809003  74.0730015   8.0970754  50.8438984  74.9093475
   7.7758077  49.7676011  73.8943347   9.5881628  48.0461883  66.5932585
  10.4228519  48.4851687  66.7570145   9.7240756  47.5700536  65.7740831
   6.6373134  45.6041618  72.5410073   7.1127255  45.7969264  71.7328924
   5.7138699  45.6600804  72.2953456   1.2153350  37.6389461  71.5065906
   1.7335294  38.3750488  71.1812395   0.8608483  37.9453455  72.3412666
   1.4665944  34.0589744  67.0266803   1.7467698  33.3912933  67.6527230
   2.2516551  34.2518839  66.5141467   5.3374803  42.4807378  70.7738378
   6.2892225  42.5805475  70.7950602   5.1678253  41.6885646  71.2836462
   3.3589182  39.5662961  70.9597779   2.7639114  39.8467974  70.2644268
   3.0738879  40.0556862  71.7314520   2.4896672  53.5185888  59.7200412
   3.4227346  53.4531449  59.9233287   2.4019885  54.3542155  59.2614944
   5.1184689  52.8351758  56.6804359   5.0398321  52.5011622  57.5740117
   5.9394356  53.3273526  56.6795831   7.8162880  45.7013497  69.8880678
   7.7839200  44.7629498  70.0740362   8.4263504  45.7797534  69.1546503
   7.9657369  42.4924541  69.9338961   7.4496417  41.7082998  69.7468890
   8.8497317  42.1643258  70.0985480   5.6268096  36.2365556  65.8934774
   5.4292917  35.9280645  66.7778106   6.2367801  36.9627195  66.0232703
  13.6339430  46.7629504  69.0286715  14.3642819  46.5014792  69.5894418
  13.0246376  46.0258226  69.0688783  11.7154727  44.9037367  69.6261166
  10.9887891  44.7693332  69.0177657  11.3002014  45.2114196  70.4317884
   1.3841742  36.1174463  63.6431305   1.9372781  36.5369917  64.3021328
   1.6211829  35.1910211  63.6854261   4.7620549  38.2274989  63.1509969
   4.1819218  38.8859793  62.7688022   4.4956482  37.4052333  62.7397387
   3.2124116  37.6280046  65.3531290   3.7123894  37.7396581  64.5445608
   3.8559724  37.3241099  65.9932098   3.5445427  40.3875079  62.2066317
   2.6571282  40.6724730  61.9886512   3.9599417  40.2268842  61.3593594
   6.8959964  40.4121600  65.9220657   7.6720354  40.9018052  66.1945274
   6.1708098  40.8379654  66.3792526   9.3332522  41.1249219  66.9794597
   9.9277013  40.8844955  66.2687906   9.4059106  40.4056350  67.6068134
   2.6888641  50.1519754  56.3014337   3.3924491  50.3569756  56.9171993
   1.9651290  50.7196515  56.5663421   3.5186451  45.9029615  62.4216608
   3.4621653  46.3598166  61.5824240   4.0714794  45.1420299  62.2439450
   7.3291257  41.6919347  63.2466727   7.0728191  41.2915982  64.0774935
   6.7044125  42.4063141  63.1216866  11.6403595  44.4315420  65.7538019
  11.0803153  44.5008609  66.5269581  11.0347098  44.2556405  65.0337515
   4.5975338  50.5902283  58.3512798   5.4320942  50.1583481  58.1690272
   4.4359681  50.4184296  59.2789692   4.2521231  47.0934396  59.7169137
   4.1970034  46.9278668  58.7757581   3.6267286  47.8010429  59.8731327
   1.5667138  49.3983308  79.0422700   2.4358297  49.5723960  78.6809335
   1.0873889  50.2177725  78.9198429   1.3769475  33.1885282  63.5500392
   0.6101871  32.6343768  63.6957074   1.7880180  33.2607150  64.4114544
  13.2259613  61.1071934  68.4467974  13.8638023  60.9878681  67.7431314
  13.1080456  62.0552778  68.5055926  10.0349320  61.0599362  68.3829499
   9.6967831  60.9440427  67.4950034  10.9039088  60.6590527  68.3630505
   5.8936135  62.9134838  64.3726390   5.3301001  62.8224775  63.6042678
   5.7788530  62.0934743  64.8528882  10.5169103  62.2134214  74.3415704
  10.5057743  61.8187012  73.4696208  10.6789742  61.4800286  74.9349476
   3.4400567  64.4086030  67.2110610   4.2321859  64.0676855  66.7956910
   3.6797218  64.5181005  68.1312764  11.4735694  66.5805806  59.6840855
  10.8223674  67.1659887  59.2974869  12.2680057  67.1112001  59.7435892
   5.3991321  63.6694943  60.0827989   6.1722197  63.1223930  59.9440865
   5.7516720  64.5339193  60.2942451   7.2376364  64.9971326  73.2894888
   6.9466230  65.9016956  73.1741555   7.8733348  65.0387853  74.0038958
   8.1632571  62.3748174  69.8796248   8.7596143  62.1504196  69.1653211
   8.2207542  61.6332920  70.4821696   7.7357599  59.8287609  57.7146439
   7.9883120  59.3069131  56.9529902   6.7982158  59.6653755  57.8173123
  12.7800882  58.8323388  65.5221182  13.5663971  58.4142811  65.1711599
  13.0439586  59.7369480  65.6902831  12.9510959  64.2696238  60.2209839
  12.3156792  64.3430865  60.9330744  12.6208366  64.8589837  59.5428918
  18.1809309  58.7698621  66.4254161  18.9134481  58.1997838  66.6591990
  17.4248665  58.3820221  66.8660666   7.4553888  61.7315715  59.9170814
   7.3390146  61.0560619  60.5851898   7.5656148  61.2448089  59.1002967
   9.7985429  61.1925862  63.6217503   9.4343636  60.6656483  64.3330425
  10.6552545  60.8024331  63.4483989  15.7034729  52.4820195  70.8848769
  15.3718054  53.3515606  70.6609984  15.1080343  52.1656479  71.5642800
   9.4390916  56.2215762  58.6178852   9.6065318  57.0895999  58.9849323
   9.2488085  56.3843044  57.6940141  12.1966249  64.6832741  70.2844682
  11.8966972  65.5857780  70.1760489  11.8517308  64.4164924  71.1365835
   5.6478730  61.1346538  66.3181387   4.7229227  61.0022752  66.5259078
   5.8963144  61.9140757  66.8151329  15.5963393  57.2015281  67.9642119
  14.6880270  57.1330690  67.6700880  15.5450989  57.6787226  68.7923945
   9.4180137  58.6773420  59.6025519   9.2979762  59.1230470  60.4410999
   8.7232725  59.0258737  59.0439057   3.0087541  60.7779811  67.1525176
   3.1379923  61.0314290  68.0664587   2.3284993  61.3707519  66.8329831
   7.1787029  71.4477061  63.2515650   7.1011058  72.3984886  63.3304130
   6.5748672  71.1022934  63.9090576   9.6704258  58.6204927  75.9077017
   8.8937593  59.1798847  75.8979881  10.3094822  59.1061710  76.4291887
  17.4625039  55.4031720  69.7419993  16.8199419  55.6964253  69.0959788
  16.9579968  55.2884640  70.5473190  15.1165203  59.1494893  60.4305853
  16.0283059  59.3822280  60.2553550  14.6074850  59.7331937  59.8680931
   7.9250631  61.4290380  75.4694984   8.6665315  61.9675424  75.1929807
   7.2187616  62.0556669  75.6266536  13.4005970  63.5719521  74.0667145
  13.8089326  63.1301931  73.3221778  12.6783232  62.9972148  74.3201338
   9.7537040  58.5092127  71.4400702  10.5998236  58.9331541  71.5835351
   9.6935678  57.8525752  72.1339265  13.7234785  64.1320711  67.8219434
  13.0943648  64.2966425  67.1195502  13.3360447  64.5462321  68.5930398
  17.6024017  65.0675149  65.1763798  16.9175055  65.4474050  64.6260831
  17.6867866  65.6770476  65.9095746  12.9036486  56.1696496  73.0981876
  12.6597418  56.9238556  72.5616152  13.1796416  56.5481843  73.9329123
  14.8574949  62.7135108  71.7759141  15.0691844  63.3566868  71.0993522
  14.8104697  61.8797425  71.3081071  12.4601178  55.3252929  68.6795714
  11.5985657  55.6234182  68.9712451  12.4863612  55.5423328  67.7476746
   9.2762747  63.8695119  65.0869519   9.7401092  64.1482822  64.2974142
   9.0119545  62.9678564  64.9042610   6.1686828  63.4166601  68.0249282
   6.7388185  63.8453869  67.3866767   6.7594940  63.1349186  68.7233468
   8.2131633  59.9918272  61.8959084   8.9155676  60.4439315  62.3633011
   7.8812262  59.3502091  62.5238977   6.6611995  58.5830028  76.2710294
   6.0310655  59.2646309  76.5045691   6.5548082  58.4713110  75.3263432
   1.9556967  58.2501824  67.1976218   1.1656021  58.5059353  66.7216329
   2.4468214  59.0650162  67.3028258  15.9720777  65.5907064  69.9481499
  16.7938220  65.1887251  69.6664180  15.9683179  65.4875298  70.8997615
   3.9071712  58.6146404  64.1559695   3.1102876  58.7265098  64.6743190
   3.6797305  58.9533056  63.2900585   9.7377380  65.1391107  72.1042209
   9.8021813  65.6011514  72.9400381   9.0288304  64.5088472  72.2324519
  24.0626770  61.9345812  66.2966470  23.3090478  61.3653210  66.1410475
  24.1974311  61.9008477  67.2437105   9.4525398  66.8059214  61.9721190
   9.3171072  67.6510750  62.4006037   9.9935210  67.0078492  61.2087123
   5.9392737  52.8850794  78.6335545   5.5459683  52.3316993  79.3083189
   6.7558878  53.1961373  79.0242062   2.9054795  64.3234652  62.5449115
   3.4179316  65.1177903  62.6954679   3.5577508  63.6260943  62.4782716
   4.7149680  67.4400409  64.6271868   4.8916308  68.3618373  64.4392852
   5.5106513  67.1258828  65.0566248   8.8560698  54.3008673  76.2255801
   9.5970412  54.9015826  76.1460264   9.0878621  53.5586311  75.6673844
   4.0002036  59.4865041  74.5034031   3.8855551  58.5850298  74.8041130
   3.1446554  59.7328737  74.1518848  11.0793874  67.4282781  76.1021532
  10.6357728  66.6419159  75.7842436  11.7411088  67.6161931  75.4365422
   5.8380995  68.9578582  70.6282210   6.3888420  68.8295646  69.8559204
   4.9992471  69.2573471  70.2777103  13.1775112  67.7085581  74.1302933
  13.1593587  68.5294462  73.6383202  14.0995032  67.5839656  74.3553074
   9.6348166  65.2229710  74.9726441  10.1676503  64.4617998  74.7425749
   9.1062247  64.9303362  75.7150596  12.8017861  50.3289776  70.5020083
  12.4582131  51.2191418  70.4259194  13.1696824  50.1391434  69.6389668
   0.8703712  62.6523307  63.3208685   1.7078934  63.0620315  63.1042393
   1.0481980  61.7122749  63.2908879  12.7668144  60.3198387  59.0092518
  12.2514767  61.0902992  59.2480906  12.4945452  59.6463523  59.6325580
  10.3515255  55.1648088  64.0677757   9.4956851  54.7754938  63.8883395
  10.7642207  55.2440049  63.2077542  11.8814402  52.6994431  68.4669316
  11.3779197  52.6624567  67.6537122  12.1745008  53.6087174  68.5265973
   8.1257287  52.7833161  67.4735498   8.9910284  52.5875970  67.1141388
   8.1934796  52.5543513  68.4004855  17.7402418  63.0730742  60.9445692
  16.9631861  62.7341901  60.5000854  18.4193899  63.0783365  60.2700657
  12.5554447  58.1925479  60.8352299  12.2504583  58.5071629  61.6862443
  13.5084889  58.2706899  60.8779632  11.0000879  64.3515703  62.4845253
  10.4722241  63.6168462  62.1718491  10.4988382  65.1290379  62.2385222
  15.9793725  62.5464723  67.6012300  15.3217399  63.2363985  67.6892428
  16.7834124  62.9361155  67.9446286   5.7319607  55.0135369  64.8451865
   6.3063358  54.7910551  64.1125058   6.3190589  55.0824064  65.5980466
  14.7899184  60.9009096  65.6516241  15.3031066  61.5339088  66.1537951
  15.4400408  60.3010291  65.2859601   6.0589194  57.0439830  58.8647750
   5.2226506  57.3814517  59.1857025   5.9193963  56.9088810  57.9274887
   8.0342274  51.8876618  63.5726934   7.3806687  51.5725635  62.9483549
   7.9922748  51.2652358  64.2986757   9.1453479  62.1695913  55.4880226
   8.2380541  61.9385166  55.6871375   9.6424511  61.3733532  55.6754208
  12.0521558  70.8793420  58.4076913  11.3783257  71.1825117  59.0161870
  12.4387380  71.6822501  58.0582370  11.2680015  58.3758551  67.8974582
  10.3502576  58.5973498  67.7396270  11.6840158  58.4504862  67.0386289
  12.0515062  59.7749967  63.0277262  12.7986881  60.2871364  62.7184384
  12.3206652  59.4534020  63.8881656  10.3241713  62.2708508  60.0104216
   9.4152932  61.9867541  60.1076686  10.3536796  62.6907586  59.1507523
  15.5560980  65.8815097  63.7795384  15.1023307  65.0406007  63.8360574
  14.9254947  66.5176496  64.1170164  14.4993900  56.8107083  65.0096051
  13.7616656  56.2984470  65.3406294  14.7520673  56.3707465  64.1979328
  13.9993919  67.7191594  64.7145202  14.2916894  68.2796651  63.9957568
  14.5092540  68.0120155  65.4698361  14.6005527  49.5883335  65.6037821
  14.9064404  48.7280699  65.3163736  15.3258132  50.1800956  65.4036815
   8.8726607  59.8837128  66.1114012   8.9275216  58.9310965  66.0356488
   8.0617809  60.0396568  66.5955310  10.0217800  63.8117252  57.3492295
   9.5837230  63.0953110  56.8897932  10.7628241  64.0393366  56.7877386
   6.8118967  58.5014188  63.8704391   5.9986832  58.8008359  64.2769583
   7.3077961  58.1069877  64.5878873   8.9627544  68.4971945  65.8038655
   8.9203723  68.7232791  64.8747187   9.8790243  68.2635320  65.9524457
  12.4093178  58.9656013  72.7019285  12.7642566  59.1927486  73.5613750
  13.0565309  59.2974389  72.0796540  18.1390915  62.0874449  63.4068614
  18.0008814  62.2776045  62.4789803  17.7827134  62.8493831  63.8636665
   6.3033041  56.0732544  69.4865626   6.9432421  55.9321303  68.7888589
   5.4710572  55.7867057  69.1104228  18.1660295  64.1550976  68.4179885
  18.5996801  64.0626265  69.2662939  18.8791875  64.1308476  67.7799901
   7.0793345  65.3734974  65.6000618   7.8733944  64.8785294  65.3983193
   6.3685038  64.8452837  65.2368324  11.8988190  67.7553070  69.9512986
  11.9525212  68.3244006  70.7190702  11.0302971  67.9254955  69.5867023
   3.3876109  59.5178056  61.6760371   2.4573697  59.4562511  61.8930333
   3.4833581  58.9954009  60.8797012   3.3061658  56.0432869  64.2638612
   3.5668475  56.9578202  64.1547773   4.1278830  55.5757311  64.4135225
   4.7786583  57.4570626  71.4337437   5.4509636  57.2487988  70.7850086
   3.9516370  57.2592712  70.9942669  19.0275844  64.1974676  70.9512771
  19.2211734  65.1020487  71.1972045  18.9276462  63.7382095  71.7851356
  10.6812155  54.0832567  73.4503098  10.0340070  54.7822516  73.3567574
  11.4513170  54.5168711  73.8179346  14.0890953  64.3481419  76.5253651
  13.9376459  64.1191971  75.6083735  14.0795632  65.3052020  76.5384996
  10.8576289  61.9213332  71.5099918  11.7868349  62.0724491  71.3368885
  10.4367319  62.0097353  70.6548564   9.6564621  65.9463996  69.2798455
   9.5175707  65.5782781  70.1524393   8.8679217  66.4611636  69.1082413
  10.2512773  71.0473093  60.6223992  10.4264529  70.5761136  61.4369614
   9.5645561  71.6738859  60.8505252  11.2069836  65.3245599  66.6687293
  10.8719669  65.2846369  67.5644943  10.7073782  64.6590315  66.1957703
   5.1814080  60.7313229  72.1939874   5.0433878  59.9993468  72.7951413
   6.0919004  60.6422129  71.9124062  14.1429028  62.6701633  56.9424353
  13.5258199  61.9448461  56.8457405  13.6745516  63.4310993  56.5991427
   7.8096381  60.4433188  71.6823554   8.5195999  59.8026380  71.6410172
   7.7665689  60.6946083  72.6049735  15.7983160  67.3800542  74.6030133
  15.7395706  66.6959762  73.9360716  16.2002678  68.1219532  74.1510759
   6.5225315  57.4298406  73.5019193   5.9862672  56.9789145  74.1540790
   5.9342023  57.5644315  72.7589658   4.8173858  74.1962455  67.3963852
   5.0570457  74.8280980  68.0742870   3.9743055  73.8450495  67.6829211
   5.9327574  56.8887057  56.0645657   5.0557040  56.7675858  55.7007904
   6.4085327  56.0973136  55.8124546  15.8000567  65.3440125  72.8344113
  14.9127346  65.0066047  72.9570512  16.3699118  64.6123157  73.0712878
   2.2564436  56.5654414  70.5872188   2.1722625  55.9580083  69.8522598
   1.4347143  57.0563432  70.5881684   9.3301720  70.0041578  69.8005356
   9.2571892  70.8096549  70.3124660   8.8879113  70.2033544  68.9753377
   9.1191500  69.2413348  63.3108177   8.3359022  69.7835028  63.4046402
   9.8184245  69.7587327  63.7102419  12.4288150  55.0507977  65.9542383
  12.9256850  54.2977940  65.6343453  11.6575132  55.0872294  65.3885592
  20.2817907  60.7548343  67.5960674  20.2707784  61.6373058  67.2254607
  19.4135287  60.4019894  67.4015211  11.7900404  69.9028412  71.9563515
  12.5028376  70.5375877  71.8839416  11.2990432  69.9992278  71.1403516
  13.5117931  63.8079665  63.5280806  12.5774209  63.9281127  63.3585511
  13.6894599  62.9052131  63.2640816   9.0123119  57.1925360  65.6814067
   8.6420906  56.6396401  66.3694973   9.5082211  56.5883494  65.1289067
  16.8990482  59.6496984  64.0630840  17.3650934  60.4824975  63.9891143
  17.3497983  59.1841965  64.7676099   6.8412317  67.6522855  72.7769085
   7.5421777  68.2859338  72.9298480   6.3707432  67.9937587  72.0164725
  14.9666713  65.9940805  61.0616992  15.2426557  65.8797400  61.9710866
  14.0971212  65.5958290  61.0229165  14.8707145  52.0177571  68.1021742
  13.9570225  52.2481798  68.2703949  15.3000246  52.1016015  68.9535774
  14.6413603  60.2067463  70.6021636  13.9885054  60.4543370  69.9474088
  15.0193983  59.3931601  70.2684113  11.6020777  70.2427156  64.7049806
  11.7843172  69.4248812  65.1677558  12.4253763  70.4594848  64.2674696
  11.9362943  69.1695341  61.9664854  12.4650709  68.6587796  61.3535017
  12.1991162  68.8537871  62.8310387  10.6901176  60.9487274  77.0887673
  10.0141813  60.8481403  77.7590048  11.5128810  60.7926488  77.5523670
   2.4380035  67.1859210  69.7100188   3.0233472  66.4402898  69.8428092
   2.2404874  67.4963167  70.5936852   5.2918691  70.2210458  64.7262630
   4.6229066  70.7056585  64.2426670   5.1531560  70.4679678  65.6406009
   9.4323959  72.2554201  71.3245289   9.9842267  72.4185823  72.0894374
   9.7730153  72.8458639  70.6525314   4.4088452  54.6029351  71.9267173
   4.4729779  55.4644182  71.5144571   4.3455573  53.9903353  71.1939532
   3.8840725  56.6752484  75.5740208   4.5112764  56.2929561  76.1877732
   3.0268644  56.4566686  75.9395900  14.2834834  67.0815459  77.1793943
  14.8274738  67.6945417  76.6848898  13.7021678  67.6395037  77.6960956
  12.5692347  70.2036177  68.3108971  12.4443486  69.4025917  67.8019916
  13.2271438  70.6982370  67.8222941   4.1900515  56.5584909  67.4886111
   3.4687100  57.1720877  67.3493584   4.9793771  57.0942674  67.4102757
  14.6327255  68.0045197  69.9388521  13.6857590  67.8850548  69.8666848
  14.9810028  67.1167695  70.0214782   6.9926828  53.8939336  73.7626763
   7.5161230  54.1401632  74.5253072   6.7739162  54.7259371  73.3429900
   2.3894109  56.1643010  61.6297888   2.0606815  55.2840389  61.4472994
   2.7433480  56.1090679  62.5174277  11.6373688  67.7997913  66.1392873
  11.4898651  66.8714621  66.3200443  12.4627182  67.8218004  65.6549948
   5.5035932  56.4515980  61.9973365   5.8432005  56.9801901  61.2751974
   5.9508053  56.7896386  62.7731932  15.2407810  68.6226472  67.2257746
  16.1654358  68.4169333  67.0882197  15.0723113  68.3742873  68.1347087
   8.1979373  54.8353031  71.4476433   7.8576194  54.0360844  71.8497113
   7.4918380  55.1354742  70.8753267   8.8495845  51.9202343  69.9003756
   9.6721914  51.4462822  69.7782647   9.0933909  52.6992827  70.4002443
   7.4904080  54.9490602  60.1966658   8.2112442  55.3271855  59.6930375
   6.8669384  55.6679479  60.3001636  11.6335203  55.6535751  61.1324990
  11.8498817  56.5360389  60.8313819  11.1529270  55.2621964  60.4030632
   6.3734424  58.6121464  67.7095735   6.2279005  58.9261767  68.6020017
   5.8959628  59.2306364  67.1566634   8.2330807  55.6024012  67.7576625
   8.2192376  54.7065105  67.4208923   8.9503235  55.6094676  68.3914911
  10.0856937  56.0361352  69.8029752   9.8274715  56.9578423  69.8014082
   9.5541978  55.6391787  70.4930216  15.0303126  69.1412139  62.5819837
  15.2040004  68.5758562  61.8293690  15.5232017  69.9413034  62.3999327
   7.6367703  54.4838392  63.0264195   7.7583614  53.5555038  63.2255082
   7.3469745  54.4977078  62.1142510  10.5058893  52.1693303  66.1630915
  10.5280590  52.2332636  65.2082894  10.9226952  51.3297811  66.3571421
  20.8842517  61.9048562  64.2010137  21.3273663  61.1555887  63.8029260
  20.0069028  61.8958699  63.8183869  16.0178299  68.4578904  59.6816736
  16.7129203  69.0785596  59.9004050  16.3601449  67.6074255  59.9569114
   1.6346108  60.2796705  73.5413553   0.8927844  60.4279340  74.1278184
   1.3138852  60.5404970  72.6780303  17.9169722  65.9078609  61.2104066
  18.4421046  66.2465882  60.4853387  17.8292074  64.9725625  61.0267201
   9.5789771  69.8212683  73.3393943   9.8876897  69.5761830  74.2116643
  10.3765253  70.0259321  72.8512813   9.6010383  71.9750592  65.5699320
   9.1615373  71.4826971  66.2632176  10.3518500  71.4323560  65.3291395
   2.0802722  68.1662133  65.5723948   2.9060741  67.8665905  65.1922591
   1.7296774  67.3969756  66.0213736   7.0484255  67.5188602  67.6421621
   6.4264264  66.8559307  67.3423849   7.7189122  67.5449733  66.9595269
   7.1208782  55.9970390  77.2354127   7.1696938  56.8732512  76.8531897
   7.6631296  55.4547783  76.6625771  17.6063628  66.5411513  76.5155264
  16.8159172  66.5235652  75.9759764  17.3696982  67.0799807  77.2704301
  17.7261503  63.3903979  73.8287993  17.7759508  63.2253987  74.7703516
  17.6175426  62.5231238  73.4385874   6.6097762  66.0692525  61.1180082
   6.7585882  66.7527989  60.4646755   7.4164205  66.0497615  61.6329538
  15.0165265  59.3734907  75.1447300  15.9175128  59.2341372  74.8531297
  15.0913240  59.5389362  76.0845477   9.3508071  56.7501762  73.9900486
   8.4811380  57.0435328  73.7183075   9.5867551  57.3342207  74.7107750
  19.2279700  65.8100921  74.0730015  18.9364508  66.1730901  74.9093475
  18.6151831  65.0967929  73.8943347  20.4275382  63.3753801  66.5932585
  21.2622273  63.8143605  66.7570145  20.5634511  62.8992454  65.7740831
  17.4766888  60.9333535  72.5410073  17.9521010  61.1261182  71.7328924
  16.5532453  60.9892721  72.2953456   4.3650395  62.0957703  62.1241151
   4.1196437  61.1920033  62.3221361   4.5346309  62.0974853  61.1820629
  12.0547105  52.9681379  71.5065906  12.5729048  53.7042406  71.1812395
  11.7002237  53.2745372  72.3412666   3.6346042  57.8286060  59.6227312
   2.9415287  57.9030415  58.9667348   3.3897794  57.0646404  60.1448829
  12.3059699  49.3881661  67.0266803  12.5861452  48.7204851  67.6527230
  13.0910306  49.5810757  66.5141467  10.1093167  68.5640655  58.5891829
   9.5367134  69.1830843  58.1362301  10.6825961  69.1140017  59.1231751
  16.1768557  57.8099295  70.7738378  17.1285980  57.9097393  70.7950602
  16.0072007  57.0177564  71.2836462  14.1982937  54.8954879  70.9597779
  13.6032869  55.1759891  70.2644268  13.9132633  55.3848780  71.7314520
  13.3290427  68.8477806  59.7200412  14.2621100  68.7823367  59.9233287
  13.2413640  69.6834072  59.2614944  15.9578444  68.1643676  56.6804359
  15.8792075  67.8303539  57.5740117  16.7788110  68.6565444  56.6795831
  18.6556635  61.0305415  69.8880678  18.6232955  60.0921416  70.0740362
  19.2657258  61.1089452  69.1546503  10.4939966  59.9001468  55.9307882
  11.4399070  59.7707676  55.9996300  10.1154211  59.1616130  56.4077310
  18.8051123  57.8216459  69.9338961  18.2890172  57.0374915  69.7468890
  19.6891072  57.4935175  70.0985480  16.4661850  51.5657474  65.8934774
  16.2686671  51.2572562  66.7778106  17.0761556  52.2919113  66.0232703
  24.4733185  62.0921422  69.0286715  25.2036573  61.8306710  69.5894418
  23.8640130  61.3550144  69.0688783  22.5548482  60.2329285  69.6261166
  21.8281645  60.0985250  69.0177657  22.1395769  60.5406113  70.4317884
  10.3778658  63.9519214  77.3908539  11.2981668  64.1297813  77.5848585
  10.3428241  63.0075260  77.2388238   8.6782883  57.8251445  55.8662767
   7.7714338  57.5284557  55.9425481   8.9558864  57.5281263  54.9997053
   3.3740731  61.8620249  70.0331320   3.5926741  62.7937357  70.0519354
   3.7866505  61.5028223  70.8186124  10.2944949  52.3688334  62.0207008
   9.4845677  52.0235419  62.3962254  10.9829365  52.0595878  62.6094620
  12.2235497  51.4466381  63.6431305  12.7766535  51.8661834  64.3021328
  12.4605583  50.5202129  63.6854261   8.2468596  57.4353455  79.4234069
   8.1465323  58.3847812  79.3546160   8.0290138  57.1071694  78.5510139
   7.4481667  54.6838380  56.0074746   8.3100831  55.0093278  56.2670564
   7.6332012  53.8969876  55.4947812  15.6014304  53.5566906  63.1509969
  15.0212973  54.2151710  62.7688022  15.3350237  52.7344251  62.7397387
  14.0517870  52.9571964  65.3531290  14.5517649  53.0688498  64.5445608
  14.6953478  52.6533017  65.9932098   8.1099866  60.8650594  78.2399131
   7.6266948  61.6650954  78.4463020   8.1960805  60.8758538  77.2866575
   1.3785826  62.6978973  66.1620950   1.3556514  62.7966660  65.2102833
   1.6886462  63.5444124  66.4838116   4.0373204  64.7555128  70.2767564
   4.9916457  64.7239071  70.2097496   3.8385727  64.2945752  71.0917790
   4.6272586  63.3256244  72.8438362   5.4465475  63.8200323  72.8673199
   4.9009393  62.4088212  72.8155929  14.3839182  55.7166997  62.2066317
  13.4965037  56.0016647  61.9886512  14.7993171  55.5560760  61.3593594
  17.7353718  55.7413518  65.9220657  18.5114108  56.2309970  66.1945274
  17.0101852  56.1671572  66.3792526  20.1726277  56.4541137  66.9794597
  20.7670768  56.2136873  66.2687906  20.2452860  55.7348267  67.6068134
   2.3923432  70.2974748  67.2937762   2.2577900  69.5375149  66.7275760
   1.9755495  71.0215648  66.8266551  13.5282395  65.4811671  56.3014337
  14.2318246  65.6861674  56.9171993  12.8045044  66.0488433  56.5663421
  14.3580206  61.2321533  62.4216608  14.3015407  61.6890084  61.5824240
  14.9108548  60.4712217  62.2439450  18.1685012  57.0211264  63.2466727
  17.9121946  56.6207900  64.0774935  17.5437880  57.7355058  63.1216866
  22.4797349  59.7607338  65.7538019  21.9196907  59.8300527  66.5269581
  21.8740853  59.5848322  65.0337515   5.5492558  71.1944065  67.5056205
   5.4324942  72.1389497  67.4034895   4.7285005  70.8917626  67.8942004
  15.4369093  65.9194200  58.3512798  16.2714697  65.4875399  58.1690272
  15.2753436  65.7476214  59.2789692  15.0914985  62.4226314  59.7169137
  15.0363789  62.2570585  58.7757581  14.4661040  63.1302347  59.8731327
  12.4060892  64.7275226  79.0422700  13.2752052  64.9015878  78.6809335
  11.9267644  65.5469642  78.9198429   8.4011110  51.9234423  59.2954455
   8.3889780  52.8676263  59.4522726   9.2934532  51.7404568  59.0013916
   6.5747072  71.8472327  70.7212133   7.4774319  71.8795937  71.0378628
   6.3484442  70.9172778  70.7358469   8.3300674  70.6003313  67.3822212
   7.3796305  70.6005175  67.2686584   8.6333161  69.8536048  66.8658246
  12.2163230  48.5177199  63.5500392  11.4495626  47.9635686  63.6957074
  12.6273935  48.5899068  64.4114544   4.2204991  54.8061995  77.6405573
   5.0836453  54.4498800  77.8508898   3.6470402  54.4675890  78.3280978
  24.0653368  76.4363852  68.4467974  24.7031778  76.3170599  67.7431314
  23.9474211  77.3844696  68.5055926  20.8743074  76.3891280  68.3829499
  20.5361586  76.2732344  67.4950034  21.7432842  75.9882445  68.3630505
  16.7329890  78.2426756  64.3726390  16.1694755  78.1516693  63.6042678
  16.6182285  77.4226661  64.8528882  21.3562857  77.5426131  74.3415704
  21.3451498  77.1478930  73.4696208  21.5183497  76.8092204  74.9349476
  14.2794322  79.7377948  67.2110610  15.0715614  79.3968772  66.7956910
  14.5190972  79.8472923  68.1312764  22.3129449  81.9097724  59.6840855
  21.6617428  82.4951804  59.2974869  23.1073811  82.4403919  59.7435892
  16.2385076  78.9986861  60.0827989  17.0115952  78.4515848  59.9440865
  16.5910475  79.8631110  60.2942451  18.0770118  80.3263243  73.2894888
  17.7859984  81.2308874  73.1741555  18.7127103  80.3679771  74.0038958
  19.0026325  77.7040092  69.8796248  19.5989897  77.4796114  69.1653211
  19.0601297  76.9624837  70.4821696  18.5751354  75.1579527  57.7146439
  18.8276874  74.6361048  56.9529902  17.6375913  74.9945672  57.8173123
  23.6194636  74.1615305  65.5221182  24.4057726  73.7434729  65.1711599
  23.8833341  75.0661398  65.6902831  23.7904714  79.5988156  60.2209839
  23.1550547  79.6722782  60.9330744  23.4602120  80.1881755  59.5428918
  29.0203064  74.0990539  66.4254161  29.7528235  73.5289755  66.6591990
  28.2642419  73.7112139  66.8660666  18.2947642  77.0607633  59.9170814
  18.1783900  76.3852536  60.5851898  18.4049902  76.5740007  59.1002967
  20.6379183  76.5217780  63.6217503  20.2737390  75.9948401  64.3330425
  21.4946299  76.1316249  63.4483989  26.5428484  67.8112113  70.8848769
  26.2111809  68.6807524  70.6609984  25.9474097  67.4948397  71.5642800
  20.2784670  71.5507680  58.6178852  20.4459073  72.4187916  58.9849323
  20.0881839  71.7134961  57.6940141  23.0360003  80.0124659  70.2844682
  22.7360727  80.9149698  70.1760489  22.6911063  79.7456842  71.1365835
  16.4872485  76.4638456  66.3181387  15.5622981  76.3314670  66.5259078
  16.7356898  77.2432675  66.8151329  26.4357147  72.5307199  67.9642119
  25.5274025  72.4622607  67.6700880  26.3844743  73.0079144  68.7923945
  20.2573891  74.0065337  59.6025519  20.1373516  74.4522388  60.4410999
  19.5626479  74.3550655  59.0439057  13.8481296  76.1071729  67.1525176
  13.9773677  76.3606208  68.0664587  13.1678747  76.6999437  66.8329831
  18.0180783  86.7768979  63.2515650  17.9404813  87.7276804  63.3304130
  17.4142427  86.4314852  63.9090576  20.5098013  73.9496844  75.9077017
  19.7331347  74.5090765  75.8979881  21.1488576  74.4353627  76.4291887
  28.3018794  70.7323637  69.7419993  27.6593174  71.0256170  69.0959788
  27.7973722  70.6176558  70.5473190  25.9558957  74.4786810  60.4305853
  26.8676813  74.7114197  60.2553550  25.4468604  75.0623855  59.8680931
  18.7644385  76.7582298  75.4694984  19.5059070  77.2967342  75.1929807
  18.0581371  77.3848587  75.6266536  24.2399725  78.9011438  74.0667145
  24.6483081  78.4593849  73.3221778  23.5176986  78.3264066  74.3201338
  20.5930795  73.8384045  71.4400702  21.4391990  74.2623459  71.5835351
  20.5329433  73.1817669  72.1339265  24.5628540  79.4612629  67.8219434
  23.9337402  79.6258343  67.1195502  24.1754202  79.8754238  68.5930398
  28.4417771  80.3967067  65.1763798  27.7568810  80.7765968  64.6260831
  28.5261621  81.0062393  65.9095746  23.7430240  71.4988413  73.0981876
  23.4991172  72.2530474  72.5616152  24.0190171  71.8773761  73.9329123
  25.6968703  78.0427026  71.7759141  25.9085598  78.6858786  71.0993522
  25.6498451  77.2089342  71.3081071  23.2994932  70.6544846  68.6795714
  22.4379411  70.9526100  68.9712451  23.3257367  70.8715245  67.7476746
  20.1156501  79.1987037  65.0869519  20.5794847  79.4774740  64.2974142
  19.8513300  78.2970482  64.9042610  17.0080583  78.7458519  68.0249282
  17.5781940  79.1745787  67.3866767  17.5988694  78.4641103  68.7233468
  19.0525388  75.3210189  61.8959084  19.7549431  75.7731233  62.3633011
  18.7206016  74.6794008  62.5238977  17.5005749  73.9121946  76.2710294
  16.8704410  74.5938227  76.5045691  17.3941837  73.8005028  75.3263432
  12.7950721  73.5793742  67.1976218  12.0049775  73.8351271  66.7216329
  13.2861969  74.3942080  67.3028258  26.8114531  80.9198981  69.9481499
  27.6331975  80.5179168  69.6664180  26.8076934  80.8167215  70.8997615
  14.7465467  73.9438321  64.1559695  13.9496630  74.0557016  64.6743190
  14.5191059  74.2824974  63.2900585  20.5771134  80.4683025  72.1042209
  20.6415567  80.9303432  72.9400381  19.8682058  79.8380389  72.2324519
  11.0788424  73.8324232  69.6291209  11.3296463  74.7171242  69.8948785
  11.6147973  73.6528834  68.8566301  34.9020524  77.2637730  66.2966470
  34.1484232  76.6945128  66.1410475  35.0368065  77.2300394  67.2437105
  20.2919152  82.1351132  61.9721190  20.1564827  82.9802668  62.4006037
  20.8328965  82.3370410  61.2087123  16.7786492  68.2142712  78.6335545
  16.3853437  67.6608910  79.3083189  17.5952632  68.5253290  79.0242062
  13.7448550  79.6526570  62.5449115  14.2573070  80.4469820  62.6954679
  14.3971262  78.9552860  62.4782716  15.5543434  82.7692326  64.6271868
  15.7310063  83.6910291  64.4392852  16.3500268  82.4550746  65.0566248
  19.6954453  69.6300591  76.2255801  20.4364166  70.2307744  76.1460264
  19.9272376  68.8878229  75.6673844  14.8395791  74.8156958  74.5034031
  14.7249306  73.9142215  74.8041130  13.9840309  75.0620655  74.1518848
  21.9187629  82.7574699  76.1021532  21.4751483  81.9711077  75.7842436
  22.5804842  82.9453849  75.4365422  16.6774750  84.2870500  70.6282210
  17.2282175  84.1587563  69.8559204  15.8386226  84.5865389  70.2777103
  24.0168867  83.0377498  74.1302933  23.9987342  83.8586379  73.6383202
  24.9388787  82.9131574  74.3553074  20.4741921  80.5521628  74.9726441
  21.0070258  79.7909916  74.7425749  19.9456002  80.2595280  75.7150596
  23.6411616  65.6581694  70.5020083  23.2975885  66.5483336  70.4259194
  24.0090578  65.4683352  69.6389668  11.7097466  77.9815224  63.3208685
  12.5472688  78.3912233  63.1042393  11.8875734  77.0414667  63.2908879
  23.6061898  75.6490305  59.0092518  23.0908522  76.4194910  59.2480906
  23.3339207  74.9755441  59.6325580  21.1909009  70.4940006  64.0677757
  20.3350606  70.1046856  63.8883395  21.6035961  70.5731967  63.2077542
  22.7208156  68.0286349  68.4669316  22.2172952  67.9916484  67.6537122
  23.0138763  68.9379092  68.5265973  18.9651042  68.1125079  67.4735498
  19.8304039  67.9167887  67.1141388  19.0328551  67.8835431  68.4004855
  28.5796173  78.4022660  60.9445692  27.8025615  78.0633819  60.5000854
  29.2587654  78.4075283  60.2700657  23.3948202  73.5217397  60.8352299
  23.0898337  73.8363546  61.6862443  24.3478644  73.5998817  60.8779632
  21.8394633  79.6807620  62.4845253  21.3115995  78.9460380  62.1718491
  21.3382136  80.4582297  62.2385222  26.8187479  77.8756641  67.6012300
  26.1611154  78.5655902  67.6892428  27.6227879  78.2653073  67.9446286
  16.5713361  70.3427287  64.8451865  17.1457113  70.1202468  64.1125058
  17.1584343  70.4115981  65.5980466  25.6292938  76.2301014  65.6516241
  26.1424820  76.8631005  66.1537951  26.2794162  75.6302209  65.2859601
  16.8982948  72.3731748  58.8647750  16.0620260  72.7106434  59.1857025
  16.7587718  72.2380728  57.9274887  18.8736029  67.2168536  63.5726934
  18.2200441  66.9017553  62.9483549  18.8316503  66.5944276  64.2986757
  19.9847234  77.4987831  55.4880226  19.0774295  77.2677084  55.6871375
  20.4818266  76.7025450  55.6754208  22.8915313  86.2085338  58.4076913
  22.2177011  86.5117035  59.0161870  23.2781134  87.0114418  58.0582370
  22.1073769  73.7050469  67.8974582  21.1896330  73.9265416  67.7396270
  22.5233913  73.7796780  67.0386289  22.8908817  75.1041885  63.0277262
  23.6380636  75.6163282  62.7184384  23.1600406  74.7825938  63.8881656
  21.1635467  77.6000426  60.0104216  20.2546686  77.3159458  60.1076686
  21.1930551  78.0199504  59.1507523  26.3954734  81.2107015  63.7795384
  25.9417062  80.3697925  63.8360574  25.7648701  81.8468413  64.1170164
  25.3387654  72.1399001  65.0096051  24.6010411  71.6276387  65.3406294
  25.5914428  71.6999383  64.1979328  24.8387674  83.0483512  64.7145202
  25.1310648  83.6088569  63.9957568  25.3486294  83.3412073  65.4698361
  25.4399281  64.9175253  65.6037821  25.7458158  64.0572617  65.3163736
  26.1651886  65.5092873  65.4036815  11.7323637  75.3205940  63.9919419
  11.5348037  74.7275300  63.2670485  11.1770301  75.0158150  64.7095357
  19.7120361  75.2129046  66.1114012  19.7668971  74.2602883  66.0356488
  18.9011563  75.3688485  66.5955310  20.8611555  79.1409169  57.3492295
  20.4230985  78.4245028  56.8897932  21.6021996  79.3685284  56.7877386
  17.6512721  73.8306106  63.8704391  16.8380587  74.1300276  64.2769583
  18.1471715  73.4361795  64.5878873  19.8021299  83.8263863  65.8038655
  19.7597478  84.0524709  64.8747187  20.7183998  83.5927237  65.9524457
  23.2486933  74.2947930  72.7019285  23.6036320  74.5219403  73.5613750
  23.8959064  74.6266307  72.0796540  28.9784670  77.4166366  63.4068614
  28.8402568  77.6067962  62.4789803  28.6220888  78.1785749  63.8636665
  17.1426796  71.4024461  69.4865626  17.7826175  71.2613221  68.7888589
  16.3104326  71.1158975  69.1104228  29.0054049  79.4842893  68.4179885
  29.4390556  79.3918182  69.2662939  29.7185630  79.4600394  67.7799901
  17.9187100  80.7026892  65.6000618  18.7127698  80.2077212  65.3983193
  17.2078792  80.1744755  65.2368324  22.7381944  83.0844987  69.9512986
  22.7918966  83.6535924  70.7190702  21.8696726  83.2546872  69.5867023
  14.2269863  74.8469974  61.6760371  13.2967451  74.7854429  61.8930333
  14.3227335  74.3245926  60.8797012  14.1455412  71.3724786  64.2638612
  14.4062229  72.2870120  64.1547773  14.9672585  70.9049229  64.4135225
  15.6180338  72.7862544  71.4337437  16.2903391  72.5779906  70.7850086
  14.7910124  72.5884630  70.9942669  29.8669599  79.5266594  70.9512771
  30.0605489  80.4312404  71.1972045  29.7670217  79.0674013  71.7851356
  21.5205910  69.4124484  73.4503098  20.8733825  70.1114434  73.3567574
  22.2906925  69.8460628  73.8179346  24.9284707  79.6773337  76.5253651
  24.7770214  79.4483888  75.6083735  24.9189387  80.6343938  76.5384996
  21.6970044  77.2505249  71.5099918  22.6262104  77.4016409  71.3368885
  21.2761074  77.3389270  70.6548564  20.4958376  81.2755914  69.2798455
  20.3569461  80.9074698  70.1524393  19.7072972  81.7903553  69.1082413
  21.0906528  86.3765010  60.6223992  21.2658283  85.9053053  61.4369614
  20.4039316  87.0030776  60.8505252  22.0463591  80.6537517  66.6687293
  21.7113423  80.6138286  67.5644943  21.5467537  79.9882232  66.1957703
  16.0207835  76.0605147  72.1939874  15.8827633  75.3285385  72.7951413
  16.9312758  75.9714047  71.9124062  24.9822782  77.9993551  56.9424353
  24.3651953  77.2740379  56.8457405  24.5139271  78.7602911  56.5991427
  18.6490135  75.7725106  71.6823554  19.3589754  75.1318298  71.6410172
  18.6059444  76.0238001  72.6049735  26.6376914  82.7092459  74.6030133
  26.5789460  82.0251679  73.9360716  27.0396433  83.4511449  74.1510759
  17.3619069  72.7590324  73.5019193  16.8256426  72.3081062  74.1540790
  16.7735778  72.8936233  72.7589658  15.6567613  89.5254373  67.3963852
  15.8964211  90.1572897  68.0742870  14.8136809  89.1742413  67.6829211
  16.7721328  72.2178975  56.0645657  15.8950795  72.0967776  55.7007904
  17.2479081  71.4265053  55.8124546  26.6394321  80.6732043  72.8344113
  25.7521100  80.3357965  72.9570512  27.2092872  79.9415074  73.0712878
   8.2923469  77.0056135  66.1587164   8.9794508  76.6917865  65.5708179
   8.1371597  77.9097500  65.8854415  13.0958191  71.8946331  70.5872188
  13.0116379  71.2872001  69.8522598  12.2740897  72.3855350  70.5881684
  20.1695475  85.3333495  69.8005356  20.0965646  86.1388467  70.3124660
  19.7272868  85.5325461  68.9753377  19.9585254  84.5705266  63.3108177
  19.1752776  85.1126946  63.4046402  20.6578000  85.0879245  63.7102419
  23.2681905  70.3799895  65.9542383  23.7650604  69.6269857  65.6343453
  22.4968886  70.4164212  65.3885592  31.1211662  76.0840261  67.5960674
  31.1101538  76.9664976  67.2254607  30.2529041  75.7311811  67.4015211
  22.6294158  85.2320330  71.9563515  23.3422131  85.8667794  71.8839416
  22.1384187  85.3284196  71.1403516  24.3511685  79.1371582  63.5280806
  23.4167964  79.2573045  63.3585511  24.5288354  78.2344049  63.2640816
  19.8516873  72.5217278  65.6814067  19.4814661  71.9688318  66.3694973
  20.3475966  71.9175411  65.1289067  27.7384237  74.9788901  64.0630840
  28.2044689  75.8116893  63.9891143  28.1891737  74.5133883  64.7676099
  17.6806072  82.9814773  72.7769085  18.3815531  83.6151256  72.9298480
  17.2101187  83.3229505  72.0164725  25.8060468  81.3232723  61.0616992
  26.0820312  81.2089317  61.9710866  24.9364966  80.9250208  61.0229165
  25.7100899  67.3469488  68.1021742  24.7963979  67.5773715  68.2703949
  26.1394001  67.4307933  68.9535774  25.4807358  75.5359380  70.6021636
  24.8278808  75.7835288  69.9474088  25.8587738  74.7223519  70.2684113
  22.4414532  85.5719074  64.7049806  22.6236926  84.7540730  65.1677558
  23.2647518  85.7886766  64.2674696  22.7756697  84.4987259  61.9664854
  23.3044464  83.9879713  61.3535017  23.0384917  84.1829789  62.8310387
  21.5294931  76.2779191  77.0887673  20.8535568  76.1773321  77.7590048
  22.3522565  76.1218405  77.5523670  13.2773790  82.5151128  69.7100188
  13.8627227  81.7694816  69.8428092  13.0798628  82.8255085  70.5936852
  16.1312445  85.5502375  64.7262630  15.4622820  86.0348503  64.2426670
  15.9925315  85.7971596  65.6406009   7.8691445  75.0856728  68.4304631
   7.9075544  74.5520319  69.2241749   7.3631737  74.5591934  67.8115608
  20.2717714  87.5846119  71.3245289  20.8236022  87.7477740  72.0894374
  20.6123907  88.1750557  70.6525314  15.2482207  69.9321269  71.9267173
  15.3123533  70.7936100  71.5144571  15.1849327  69.3195270  71.1939532
  14.7234479  72.0044401  75.5740208  15.3506518  71.6221479  76.1877732
  13.8662398  71.7858603  75.9395900  25.1228588  82.4107376  77.1793943
  25.6668492  83.0237335  76.6848898  24.5415433  82.9686955  77.6960956
  11.5000022  73.8120830  61.5058563  11.7953463  72.9031509  61.4525616
  10.5988058  73.7908570  61.1839565  23.4086101  85.5328094  68.3108971
  23.2837240  84.7317834  67.8019916  24.0665192  86.0274288  67.8222941
  15.0294269  71.8876827  67.4886111  14.3080855  72.5012795  67.3493584
  15.8187525  72.4234592  67.4102757  25.4721009  83.3337115  69.9388521
  24.5251345  83.2142466  69.8666848  25.8203782  82.4459613  70.0214782
  17.8320583  69.2231253  73.7626763  18.3554985  69.4693550  74.5253072
  17.6132916  70.0551288  73.3429900  13.2287864  71.4934928  61.6297888
  12.9000570  70.6132307  61.4472994  13.5827235  71.4382597  62.5174277
  22.4767443  83.1289831  66.1392873  22.3292405  82.2006538  66.3200443
  23.3020936  83.1509921  65.6549948  16.3429687  71.7807898  61.9973365
  16.6825759  72.3093819  61.2751974  16.7901807  72.1188304  62.7731932
  26.0801565  83.9518389  67.2257746  27.0048112  83.7461251  67.0882197
  25.9116868  83.7034791  68.1347087  19.0373128  70.1644949  71.4476433
  18.6969948  69.3652762  71.8497113  18.3312134  70.4646659  70.8753267
  19.6889600  67.2494261  69.9003756  20.5115669  66.7754739  69.7782647
  19.9327663  68.0284745  70.4002443  18.3297834  70.2782519  60.1966658
  19.0506197  70.6563772  59.6930375  17.7063138  70.9971396  60.3001636
  22.4728957  70.9827668  61.1324990  22.6892571  71.8652306  60.8313819
  21.9923024  70.5913882  60.4030632  17.2128178  73.9413382  67.7095735
  17.0672759  74.2553685  68.6020017  16.7353382  74.5598282  67.1566634
  19.0724561  70.9315930  67.7576625  19.0586130  70.0357023  67.4208923
  19.7896989  70.9386593  68.3914911  20.9250692  71.3653270  69.8029752
  20.6668470  72.2870340  69.8014082  20.3935732  70.9683704  70.4930216
  25.8696881  84.4704057  62.5819837  26.0433758  83.9050479  61.8293690
  26.3625772  85.2704952  62.3999327  11.6873841  76.4818726  70.6483396
  11.1427309  77.2578534  70.7803671  12.5653190  76.8289531  70.4902518
  18.4761457  69.8130310  63.0264195  18.5977368  68.8846956  63.2255082
  18.1863500  69.8268996  62.1142510  21.3452648  67.4985220  66.1630915
  21.3674344  67.5624553  65.2082894  21.7620707  66.6589729  66.3571421
  31.7236272  77.2340480  64.2010137  32.1667418  76.4847805  63.8029260
  30.8462782  77.2250616  63.8183869  26.8572053  83.7870821  59.6816736
  27.5522958  84.4077514  59.9004050  27.1995203  82.9366173  59.9569114
  12.4739862  75.6088622  73.5413553  11.7321598  75.7571258  74.1278184
  12.1532607  75.8696888  72.6780303  28.7563476  81.2370527  61.2104066
  29.2814800  81.5757800  60.4853387  28.6685829  80.3017542  61.0267201
  20.4183525  85.1504601  73.3393943  20.7270651  84.9053747  74.2116643
  21.2159007  85.3551239  72.8512813  20.4404137  87.3042510  65.5699320
  20.0009127  86.8118889  66.2632176  21.1912254  86.7615478  65.3291395
  12.9196476  83.4954051  65.5723948  13.7454496  83.1957823  65.1922591
  12.5690528  82.7261673  66.0213736  17.8878009  82.8480519  67.6421621
  17.2658019  82.1851224  67.3423849  18.5582876  82.8741651  66.9595269
  11.1205081  81.4140377  66.5312881  10.2836989  80.9862552  66.3496883
  11.0928727  81.6072821  67.4683673  17.9602537  71.3262307  77.2354127
  18.0090692  72.2024430  76.8531897  18.5025051  70.7839700  76.6625771
  28.4457382  81.8703431  76.5155264  27.6552926  81.8527569  75.9759764
  28.2090737  82.4091724  77.2704301  28.5655257  78.7195897  73.8287993
  28.6153262  78.5545904  74.7703516  28.4569181  77.8523156  73.4385874
  17.4491516  81.3984443  61.1180082  17.5979637  82.0819907  60.4646755
  18.2557960  81.3789533  61.6329538  25.8559020  74.7026825  75.1447300
  26.7568883  74.5633290  74.8531297  25.9306994  74.8681280  76.0845477
  20.1901825  72.0793680  73.9900486  19.3205135  72.3727246  73.7183075
  20.4261306  72.6634125  74.7107750  30.0673454  81.1392838  74.0730015
  29.7758263  81.5022819  74.9093475  29.4545586  80.4259847  73.8943347
  31.2669137  78.7045718  66.5932585  32.1016028  79.1435522  66.7570145
  31.4028265  78.2284371  65.7740831  28.3160643  76.2625453  72.5410073
  28.7914764  76.4553099  71.7328924  27.3926208  76.3184639  72.2953456
  15.2044149  77.4249620  62.1241151  14.9590191  76.5211950  62.3221361
  15.3740064  77.4266771  61.1820629  22.8940859  68.2973297  71.5065906
  23.4122803  69.0334324  71.1812395  22.5395992  68.6037290  72.3412666
  14.4739797  73.1577978  59.6227312  13.7809042  73.2322333  58.9667348
  14.2291549  72.3938321  60.1448829  23.1453453  64.7173579  67.0266803
  23.4255207  64.0496768  67.6527230  23.9304060  64.9102675  66.5141467
  20.9486922  83.8932573  58.5891829  20.3760889  84.5122760  58.1362301
  21.5219715  84.4431935  59.1231751  27.0162312  73.1391213  70.7738378
  27.9679734  73.2389311  70.7950602  26.8465762  72.3469482  71.2836462
  25.0376691  70.2246796  70.9597779  24.4426623  70.5051809  70.2644268
  24.7526388  70.7140697  71.7314520  24.1684181  84.1769723  59.7200412
  25.1014855  84.1115285  59.9233287  24.0807394  85.0125990  59.2614944
  26.7972198  83.4935594  56.6804359  26.7185830  83.1595457  57.5740117
  27.6181865  83.9857361  56.6795831  29.4950389  76.3597333  69.8880678
  29.4626709  75.4213334  70.0740362  30.1051013  76.4381370  69.1546503
  21.3333720  75.2293386  55.9307882  22.2792825  75.0999594  55.9996300
  20.9547965  74.4908048  56.4077310  29.6444878  73.1508376  69.9338961
  29.1283926  72.3666833  69.7468890  30.5284826  72.8227093  70.0985480
  27.3055605  66.8949392  65.8934774  27.1080426  66.5864480  66.7778106
  27.9155310  67.6211031  66.0232703  35.3126939  77.4213340  69.0286715
  36.0430328  77.1598628  69.5894418  34.7033885  76.6842062  69.0688783
  33.3942236  75.5621202  69.6261166  32.6675400  75.4277167  69.0177657
  32.9789523  75.8698031  70.4317884  21.2172413  79.2811132  77.3908539
  22.1375422  79.4589731  77.5848585  21.1821996  78.3367177  77.2388238
  19.5176637  73.1543362  55.8662767  18.6108093  72.8576475  55.9425481
  19.7952618  72.8573180  54.9997053  10.4354578  74.4749726  66.3161813
  10.1157362  73.6215034  66.0236187   9.8888006  74.6898304  67.0719781
  14.2134485  77.1912167  70.0331320  14.4320495  78.1229274  70.0519354
  14.6260259  76.8320141  70.8186124  21.1338703  67.6980252  62.0207008
  20.3239431  67.3527337  62.3962254  21.8223120  67.3887796  62.6094620
  23.0629251  66.7758299  63.6431305  23.6160290  67.1953752  64.3021328
  23.2999338  65.8494047  63.6854261  19.0862351  72.7645372  79.4234069
  18.9859077  73.7139729  79.3546160  18.8683893  72.4363611  78.5510139
  18.2875422  70.0130297  56.0074746  19.1494586  70.3385196  56.2670564
  18.4725766  69.2261793  55.4947812  10.3042838  78.0952637  68.2854935
   9.6106309  77.6806590  67.7724889  11.0515829  78.1373174  67.6888354
  26.4408058  68.8858824  63.1509969  25.8606727  69.5443628  62.7688022
  26.1743991  68.0636168  62.7397387  24.8911625  68.2863882  65.3531290
  25.3911403  68.3980416  64.5445608  25.5347233  67.9824934  65.9932098
  18.9493621  76.1942511  78.2399131  18.4660702  76.9942871  78.4463020
  19.0354560  76.2050456  77.2866575  12.2179580  78.0270891  66.1620950
  12.1950268  78.1258578  65.2102833  12.5280217  78.8736042  66.4838116
  14.8766958  80.0847046  70.2767564  15.8310212  80.0530988  70.2097496
  14.6779482  79.6237670  71.0917790  15.4666340  78.6548162  72.8438362
  16.2859229  79.1492241  72.8673199  15.7403148  77.7380130  72.8155929
  25.2232936  71.0458914  62.2066317  24.3358791  71.3308565  61.9886512
  25.6386926  70.8852678  61.3593594  28.5747473  71.0705435  65.9220657
  29.3507863  71.5601888  66.1945274  27.8495607  71.4963489  66.3792526
  31.0120031  71.7833054  66.9794597  31.6064522  71.5428790  66.2687906
  31.0846615  71.0640185  67.6068134  13.2317187  85.6266665  67.2937762
  13.0971655  84.8667066  66.7275760  12.8149249  86.3507565  66.8266551
  24.3676150  80.8103589  56.3014337  25.0712000  81.0153591  56.9171993
  23.6438799  81.3780351  56.5663421  25.1973960  76.5613450  62.4216608
  25.1409162  77.0182002  61.5824240  25.7502303  75.8004135  62.2439450
  29.0078766  72.3503182  63.2466727  28.7515700  71.9499818  64.0774935
  28.3831634  73.0646976  63.1216866  33.3191104  75.0899255  65.7538019
  32.7590662  75.1592445  66.5269581  32.7134607  74.9140240  65.0337515
  16.3886313  86.5235982  67.5056205  16.2718697  87.4681415  67.4034895
  15.5678759  86.2209544  67.8942004  26.2762847  81.2486118  58.3512798
  27.1108451  80.8167317  58.1690272  26.1147190  81.0768132  59.2789692
  25.9308740  77.7518231  59.7169137  25.8757543  77.5862503  58.7757581
  25.3054795  78.4594264  59.8731327  10.7201254  72.9886296  73.5430559
  11.3660118  72.4785250  74.0317784  10.5118406  73.7254977  74.1173984
  23.2454647  80.0567143  79.0422700  24.1145806  80.2307796  78.6809335
  22.7661398  80.8761560  78.9198429  19.2404865  67.2526340  59.2954455
  19.2283535  68.1968180  59.4522726  20.1328287  67.0696486  59.0013916
  17.4140827  87.1764244  70.7212133  18.3168074  87.2087855  71.0378628
  17.1878197  86.2464695  70.7358469  19.1694429  85.9295231  67.3822212
  18.2190060  85.9297092  67.2686584  19.4726915  85.1827965  66.8658246
  23.0556984  63.8469117  63.5500392  22.2889380  63.2927604  63.6957074
  23.4667689  63.9190986  64.4114544  15.0598745  70.1353913  77.6405573
  15.9230207  69.7790718  77.8508898  14.4864156  69.7967808  78.3280978
  34.9047122  91.7655769  68.4467974  35.5425532  91.6462517  67.7431314
  34.7867965  92.7136613  68.5055926  31.7136829  91.7183197  68.3829499
  31.3755340  91.6024262  67.4950034  32.5826597  91.3174362  68.3630505
  27.5723644  93.5718674  64.3726390  27.0088510  93.4808611  63.6042678
  27.4576039  92.7518578  64.8528882  32.1956612  92.8718049  74.3415704
  32.1845252  92.4770847  73.4696208  32.3577251  92.1384122  74.9349476
  25.1188076  95.0669865  67.2110610  25.9109368  94.7260690  66.7956910
  25.3584726  95.1764840  68.1312764  33.1523203  97.2389641  59.6840855
  32.5011183  97.8243722  59.2974869  33.9467566  97.7695836  59.7435892
  27.0778830  94.3278779  60.0827989  27.8509706  93.7807766  59.9440865
  27.4304229  95.1923028  60.2942451  28.9163873  95.6555161  73.2894888
  28.6253739  96.5600792  73.1741555  29.5520857  95.6971688  74.0038958
  29.8420080  93.0332009  69.8796248  30.4383652  92.8088032  69.1653211
  29.8995051  92.2916755  70.4821696  29.4145108  90.4871445  57.7146439
  29.6670629  89.9652966  56.9529902  28.4769667  90.3237590  57.8173123
  34.4588391  89.4907223  65.5221182  35.2451480  89.0726646  65.1711599
  34.7227095  90.3953315  65.6902831  34.6298468  94.9280073  60.2209839
  33.9944301  95.0014700  60.9330744  34.2995875  95.5173672  59.5428918
  39.8596818  89.4282456  66.4254161  40.5921990  88.8581673  66.6591990
  39.1036174  89.0404057  66.8660666  29.1341397  92.3899551  59.9170814
  29.0177655  91.7144454  60.5851898  29.2443657  91.9031925  59.1002967
  31.4772938  91.8509698  63.6217503  31.1131145  91.3240319  64.3330425
  32.3340054  91.4608167  63.4483989  37.3822238  83.1404030  70.8848769
  37.0505563  84.0099441  70.6609984  36.7867852  82.8240314  71.5642800
  31.1178425  86.8799597  58.6178852  31.2852827  87.7479834  58.9849323
  30.9275594  87.0426879  57.6940141  33.8753758  95.3416576  70.2844682
  33.5754481  96.2441615  70.1760489  33.5304817  95.0748760  71.1365835
  27.3266239  91.7930373  66.3181387  26.4016736  91.6606587  66.5259078
  27.5750653  92.5724592  66.8151329  37.2750902  87.8599117  67.9642119
  36.3667779  87.7914525  67.6700880  37.2238497  88.3371061  68.7923945
  31.0967646  89.3357255  59.6025519  30.9767271  89.7814306  60.4410999
  30.4020234  89.6842573  59.0439057  24.6875050  91.4363647  67.1525176
  24.8167432  91.6898126  68.0664587  24.0072502  92.0291355  66.8329831
  31.3491767  89.2788762  75.9077017  30.5725102  89.8382682  75.8979881
  31.9882331  89.7645545  76.4291887  39.1412548  86.0615555  69.7419993
  38.4986928  86.3548088  69.0959788  38.6367477  85.9468475  70.5473190
  36.7952712  89.8078728  60.4305853  37.7070568  90.0406115  60.2553550
  36.2862359  90.3915772  59.8680931  29.6038140  92.0874216  75.4694984
  30.3452824  92.6259259  75.1929807  28.8975125  92.7140504  75.6266536
  35.0793479  94.2303356  74.0667145  35.4876835  93.7885766  73.3221778
  34.3570741  93.6555983  74.3201338  31.4324549  89.1675963  71.4400702
  32.2785745  89.5915376  71.5835351  31.3723187  88.5109587  72.1339265
  35.4022294  94.7904547  67.8219434  34.7731157  94.9550261  67.1195502
  35.0147956  95.2046156  68.5930398  39.2811526  95.7258984  65.1763798
  38.5962564  96.1057886  64.6260831  39.3655375  96.3354311  65.9095746
  34.5823995  86.8280331  73.0981876  34.3384927  87.5822392  72.5616152
  34.8583925  87.2065679  73.9329123  36.5362458  93.3718943  71.7759141
  36.7479353  94.0150703  71.0993522  36.4892206  92.5381260  71.3081071
  34.1388687  85.9836764  68.6795714  33.2773166  86.2818018  68.9712451
  34.1651121  86.2007163  67.7476746  30.9550256  94.5278955  65.0869519
  31.4188601  94.8066658  64.2974142  30.6907054  93.6262399  64.9042610
  27.8474337  94.0750436  68.0249282  28.4175694  94.5037705  67.3866767
  28.4382449  93.7933021  68.7233468  29.8919142  90.6502107  61.8959084
  30.5943185  91.1023151  62.3633011  29.5599770  90.0085926  62.5238977
  28.3399504  89.2413864  76.2710294  27.7098164  89.9230145  76.5045691
  28.2335591  89.1296945  75.3263432  23.6344476  88.9085660  67.1976218
  22.8443530  89.1643188  66.7216329  24.1255723  89.7233998  67.3028258
  37.6508286  96.2490899  69.9481499  38.4725729  95.8471086  69.6664180
  37.6470688  96.1459133  70.8997615  25.5859221  89.2730239  64.1559695
  24.7890385  89.3848933  64.6743190  25.3584814  89.6116891  63.2900585
  31.4164889  95.7974942  72.1042209  31.4809321  96.2595349  72.9400381
  30.7075813  95.1672307  72.2324519  21.9182179  89.1616150  69.6291209
  22.1690217  90.0463160  69.8948785  22.4541727  88.9820752  68.8566301
  45.7414279  92.5929647  66.2966470  44.9877987  92.0237045  66.1410475
  45.8761820  92.5592312  67.2437105  31.1312907  97.4643050  61.9721190
  30.9958581  98.3094585  62.4006037  31.6722719  97.6662327  61.2087123
  27.6180246  83.5434630  78.6335545  27.2247192  82.9900828  79.3083189
  28.4346387  83.8545208  79.0242062  24.5842304  94.9818488  62.5449115
  25.0966825  95.7761738  62.6954679  25.2365017  94.2844778  62.4782716
  26.3937189  98.0984244  64.6271868  26.5703817  99.0202209  64.4392852
  27.1894022  97.7842663  65.0566248  30.5348207  84.9592509  76.2255801
  31.2757921  85.5599662  76.1460264  30.7666130  84.2170146  75.6673844
  25.6789545  90.1448876  74.5034031  25.5643060  89.2434133  74.8041130
  24.8234063  90.3912573  74.1518848  32.7581383  98.0866616  76.1021532
  32.3145237  97.3002995  75.7842436  33.4198597  98.2745767  75.4365422
  27.5168504  99.6162418  70.6282210  28.0675929  99.4879481  69.8559204
  26.6779980  99.9157307  70.2777103  34.8562621  98.3669416  74.1302933
  34.8381096  99.1878297  73.6383202  35.7782541  98.2423491  74.3553074
  31.3135675  95.8813546  74.9726441  31.8464012  95.1201834  74.7425749
  30.7849756  95.5887197  75.7150596  34.4805370  80.9873612  70.5020083
  34.1369640  81.8775253  70.4259194  34.8484333  80.7975269  69.6389668
  22.5491221  93.3107142  63.3208685  23.3866443  93.7204150  63.1042393
  22.7269488  92.3706584  63.2908879  34.4455653  90.9782223  59.0092518
  33.9302276  91.7486827  59.2480906  34.1732961  90.3047359  59.6325580
  32.0302764  85.8231923  64.0677757  31.1744360  85.4338774  63.8883395
  32.4429716  85.9023884  63.2077542  33.5601911  83.3578267  68.4669316
  33.0566706  83.3208402  67.6537122  33.8532517  84.2671009  68.5265973
  29.8044796  83.4416996  67.4735498  30.6697793  83.2459805  67.1141388
  29.8722305  83.2127348  68.4004855  39.4189927  93.7314577  60.9445692
  38.6419370  93.3925737  60.5000854  40.0981408  93.7367200  60.2700657
  34.2341956  88.8509315  60.8352299  33.9292092  89.1655464  61.6862443
  35.1872398  88.9290735  60.8779632  32.6788388  95.0099538  62.4845253
  32.1509750  94.2752298  62.1718491  32.1775891  95.7874214  62.2385222
  37.6581234  93.2048559  67.6012300  37.0004908  93.8947820  67.6892428
  38.4621633  93.5944991  67.9446286  27.4107116  85.6719204  64.8451865
  27.9850867  85.4494386  64.1125058  27.9978098  85.7407899  65.5980466
  36.4686693  91.5592931  65.6516241  36.9818574  92.1922923  66.1537951
  37.1187917  90.9594127  65.2859601  27.7376703  87.7023665  58.8647750
  26.9014015  88.0398352  59.1857025  27.5981472  87.5672645  57.9274887
  29.7129783  82.5460453  63.5726934  29.0594196  82.2309470  62.9483549
  29.6710257  81.9236194  64.2986757  30.8240988  92.8279748  55.4880226
  29.9168050  92.5969002  55.6871375  31.3212020  92.0317368  55.6754208
  33.7309067 101.5377256  58.4076913  33.0570766 101.8408952  59.0161870
  34.1174889 102.3406336  58.0582370  32.9467524  89.0342387  67.8974582
  32.0290085  89.2557334  67.7396270  33.3627667  89.1088697  67.0386289
  33.7302571  90.4333802  63.0277262  34.4774390  90.9455200  62.7184384
  33.9994161  90.1117855  63.8881656  32.0029222  92.9292343  60.0104216
  31.0940441  92.6451376  60.1076686  32.0324305  93.3491422  59.1507523
  37.2348489  96.5398933  63.7795384  36.7810816  95.6989843  63.8360574
  36.6042456  97.1760331  64.1170164  36.1781409  87.4690919  65.0096051
  35.4404165  86.9568305  65.3406294  36.4308182  87.0291300  64.1979328
  35.6781428  98.3775429  64.7145202  35.9704403  98.9380487  63.9957568
  36.1880049  98.6703990  65.4698361  36.2793036  80.2467171  65.6037821
  36.5851913  79.3864534  65.3163736  37.0045641  80.8384791  65.4036815
  22.5717392  90.6497857  63.9919419  22.3741792  90.0567218  63.2670485
  22.0164056  90.3450068  64.7095357  30.5514116  90.5420964  66.1114012
  30.6062725  89.5894800  66.0356488  29.7405318  90.6980403  66.5955310
  31.7005309  94.4701087  57.3492295  31.2624739  93.7536946  56.8897932
  32.4415750  94.6977202  56.7877386  28.4906476  89.1598024  63.8704391
  27.6774341  89.4592194  64.2769583  28.9865470  88.7653712  64.5878873
  30.6415053  99.1555780  65.8038655  30.5991232  99.3816627  64.8747187
  31.5577752  98.9219155  65.9524457  34.0880687  89.6239848  72.7019285
  34.4430075  89.8511321  73.5613750  34.7352818  89.9558225  72.0796540
  39.8178424  92.7458284  63.4068614  39.6796323  92.9359880  62.4789803
  39.4614643  93.5077667  63.8636665  27.9820550  86.7316379  69.4865626
  28.6219930  86.5905138  68.7888589  27.1498081  86.4450892  69.1104228
  39.8447804  94.8134811  68.4179885  40.2784310  94.7210100  69.2662939
  40.5579384  94.7892311  67.7799901  28.7580854  96.0318810  65.6000618
  29.5521453  95.5369130  65.3983193  28.0472547  95.5036673  65.2368324
  33.5775699  98.4136905  69.9512986  33.6312721  98.9827841  70.7190702
  32.7090480  98.5838790  69.5867023  25.0663618  90.1761891  61.6760371
  24.1361206  90.1146347  61.8930333  25.1621090  89.6537844  60.8797012
  24.9849167  86.7016704  64.2638612  25.2455984  87.6162037  64.1547773
  25.8066339  86.2341147  64.4135225  26.4574092  88.1154461  71.4337437
  27.1297145  87.9071823  70.7850086  25.6303879  87.9176547  70.9942669
  40.7063353  94.8558512  70.9512771  40.8999243  95.7604322  71.1972045
  40.6063971  94.3965931  71.7851356  32.3599664  84.7416402  73.4503098
  31.7127579  85.4406352  73.3567574  33.1300679  85.1752546  73.8179346
  35.7678462  95.0065254  76.5253651  35.6163968  94.7775806  75.6083735
  35.7583141  95.9635856  76.5384996  32.5363798  92.5797167  71.5099918
  33.4655858  92.7308327  71.3368885  32.1154828  92.6681188  70.6548564
  31.3352130  96.6047831  69.2798455  31.1963216  96.2366616  70.1524393
  30.5466726  97.1195471  69.1082413  32.8857345  95.9829434  66.6687293
  32.5507178  95.9430204  67.5644943  32.3861291  95.3174150  66.1957703
  26.8601589  91.3897064  72.1939874  26.7221387  90.6577303  72.7951413
  27.7706513  91.3005964  71.9124062  35.8216537  93.3285469  56.9424353
  35.2045708  92.6032297  56.8457405  35.3533025  94.0894829  56.5991427
  29.4883890  91.1017024  71.6823554  30.1983508  90.4610216  71.6410172
  29.4453198  91.3529918  72.6049735  37.4770669  98.0384377  74.6030133
  37.4183215  97.3543597  73.9360716  37.8790187  98.7803367  74.1510759
  28.2012824  88.0882241  73.5019193  27.6650181  87.6372980  74.1540790
  27.6129532  88.2228150  72.7589658  27.6115083  87.5470893  56.0645657
  26.7344549  87.4259694  55.7007904  28.0872836  86.7556971  55.8124546
  37.4788076  96.0023961  72.8344113  36.5914855  95.6649883  72.9570512
  38.0486627  95.2706992  73.0712878  19.1317223  92.3348053  66.1587164
  19.8188263  92.0209783  65.5708179  18.9765352  93.2389417  65.8854415
  23.9351945  87.2238249  70.5872188  23.8510134  86.6163919  69.8522598
  23.1134652  87.7147267  70.5881684  31.0089229 100.6625413  69.8005356
  30.9359401 101.4680385  70.3124660  30.5666622 100.8617379  68.9753377
  30.7979009  99.8997183  63.3108177  30.0146531 100.4418863  63.4046402
  31.4971754 100.4171163  63.7102419  34.1075659  85.7091813  65.9542383
  34.6044359  84.9561775  65.6343453  33.3362641  85.7456129  65.3885592
  41.9605416  91.4132178  67.5960674  41.9495293  92.2956894  67.2254607
  41.0922796  91.0603729  67.4015211  33.4687913 100.5612247  71.9563515
  34.1815885 101.1959712  71.8839416  32.9777941 100.6576113  71.1403516
  35.1905440  94.4663500  63.5280806  34.2561718  94.5864962  63.3585511
  35.3682108  93.5635967  63.2640816  30.6910628  87.8509196  65.6814067
  30.3208415  87.2980236  66.3694973  31.1869720  87.2467329  65.1289067
  38.5777991  90.3080819  64.0630840  39.0438443  91.1408811  63.9891143
  39.0285492  89.8425801  64.7676099  28.5199826  98.3106691  72.7769085
  29.2209286  98.9443174  72.9298480  28.0494941  98.6521422  72.0164725
  36.6454222  96.6524640  61.0616992  36.9214066  96.5381235  61.9710866
  35.7758721  96.2542125  61.0229165  36.5494654  82.6761406  68.1021742
  35.6357734  82.9065633  68.2703949  36.9787755  82.7599850  68.9535774
  36.3201112  90.8651298  70.6021636  35.6672563  91.1127206  69.9474088
  36.6981492  90.0515436  70.2684113  33.2808286 100.9010991  64.7049806
  33.4630681 100.0832647  65.1677558  34.1041272 101.1178684  64.2674696
  33.6150452  99.8279176  61.9664854  34.1438218  99.3171631  61.3535017
  33.8778671  99.5121707  62.8310387  32.3688685  91.6071109  77.0887673
  31.6929322  91.5065238  77.7590048  33.1916319  91.4510323  77.5523670
  24.1167544  97.8443046  69.7100188  24.7020981  97.0986734  69.8428092
  23.9192383  98.1547002  70.5936852  18.7085199  90.4148646  68.4304631
  18.7469299  89.8812237  69.2241749  18.2025492  89.8883851  67.8115608
  26.0875961  85.2613186  71.9267173  26.1517288  86.1228017  71.5144571
  26.0243082  84.6487188  71.1939532  25.5628234  87.3336319  75.5740208
  26.1900273  86.9513396  76.1877732  24.7056153  87.1150521  75.9395900
  35.9622343  97.7399294  77.1793943  36.5062247  98.3529252  76.6848898
  35.3809187  98.2978873  77.6960956  22.3393777  89.1412748  61.5058563
  22.6347218  88.2323426  61.4525616  21.4381812  89.1200488  61.1839565
  34.2479855 100.8620012  68.3108971  34.1230995 100.0609752  67.8019916
  34.9058947 101.3566206  67.8222941  25.8688024  87.2168745  67.4886111
  25.1474609  87.8304712  67.3493584  26.6581279  87.7526509  67.4102757
  36.3114764  98.6629032  69.9388521  35.3645099  98.5434383  69.8666848
  36.6597537  97.7751530  70.0214782  28.6714337  84.5523171  73.7626763
  29.1948739  84.7985468  74.5253072  28.4526671  85.3843206  73.3429900
  24.0681618  86.8226846  61.6297888  23.7394324  85.9424225  61.4472994
  24.4220989  86.7674514  62.5174277  33.3161197  98.4581748  66.1392873
  33.1686160  97.5298456  66.3200443  34.1414691  98.4801839  65.6549948
  27.1823441  87.1099816  61.9973365  27.5219514  87.6385737  61.2751974
  27.6295562  87.4480222  62.7731932  36.9195319  99.2810307  67.2257746
  37.8441866  99.0753169  67.0882197  36.7510622  99.0326708  68.1347087
  29.8766882  85.4936866  71.4476433  29.5363703  84.6944679  71.8497113
  29.1705889  85.7938577  70.8753267  30.5283354  82.5786179  69.9003756
  31.3509423  82.1046657  69.7782647  30.7721418  83.3576662  70.4002443
  29.1691589  85.6074437  60.1966658  29.8899951  85.9855690  59.6930375
  28.5456893  86.3263314  60.3001636  33.3122711  86.3119586  61.1324990
  33.5286326  87.1944224  60.8313819  32.8316779  85.9205800  60.4030632
  28.0521933  89.2705299  67.7095735  27.9066514  89.5845602  68.6020017
  27.5747136  89.8890200  67.1566634  29.9118316  86.2607847  67.7576625
  29.8979885  85.3648941  67.4208923  30.6290744  86.2678511  68.3914911
  31.7644446  86.6945188  69.8029752  31.5062224  87.6162258  69.8014082
  31.2329487  86.2975622  70.4930216  36.7090635  99.7995975  62.5819837
  36.8827513  99.2342397  61.8293690  37.2019526 100.5996870  62.3999327
  22.5267595  91.8110644  70.6483396  21.9821063  92.5870452  70.7803671
  23.4046945  92.1581448  70.4902518  29.3155212  85.1422228  63.0264195
  29.4371123  84.2138874  63.2255082  29.0257254  85.1560914  62.1142510
  32.1846402  82.8277138  66.1630915  32.2068099  82.8916471  65.2082894
  32.6014461  81.9881647  66.3571421  42.5630026  92.5632398  64.2010137
  43.0061172  91.8139723  63.8029260  41.6856537  92.5542534  63.8183869
  37.6965808  99.1162739  59.6816736  38.3916712  99.7369432  59.9004050
  38.0388958  98.2658090  59.9569114  23.3133617  90.9380540  73.5413553
  22.5715353  91.0863175  74.1278184  22.9926361  91.1988806  72.6780303
  39.5957231  96.5662445  61.2104066  40.1208555  96.9049717  60.4853387
  39.5079583  95.6309460  61.0267201  31.2577280 100.4796518  73.3393943
  31.5664406 100.2345665  74.2116643  32.0552762 100.6843157  72.8512813
  23.7590231  98.8245969  65.5723948  24.5848250  98.5249741  65.1922591
  23.4084283  98.0553591  66.0213736  28.7271764  98.1772437  67.6421621
  28.1051773  97.5143142  67.3423849  29.3976631  98.2033569  66.9595269
  21.9598836  96.7432295  66.5312881  21.1230744  96.3154470  66.3496883
  21.9322481  96.9364739  67.4683673  28.7996291  86.6554225  77.2354127
  28.8484447  87.5316348  76.8531897  29.3418805  86.1131618  76.6625771
  39.2851137  97.1995348  76.5155264  38.4946681  97.1819487  75.9759764
  39.0484491  97.7383642  77.2704301  39.4049012  94.0487815  73.8287993
  39.4547017  93.8837822  74.7703516  39.2962935  93.1815074  73.4385874
  28.2885271  96.7276360  61.1180082  28.4373391  97.4111825  60.4646755
  29.0951714  96.7081450  61.6329538  36.6952774  90.0318743  75.1447300
  37.5962637  89.8925207  74.8531297  36.7700749  90.1973197  76.0845477
  31.0295580  87.4085597  73.9900486  30.1598889  87.7019163  73.7183075
  31.2655060  87.9926042  74.7107750  40.9067209  96.4684756  74.0730015
  40.6152017  96.8314737  74.9093475  40.2939340  95.7551764  73.8943347
  42.1062891  94.0337636  66.5932585  42.9409782  94.4727440  66.7570145
  42.2422020  93.5576289  65.7740831  39.1554397  91.5917371  72.5410073
  39.6308519  91.7845017  71.7328924  38.2319962  91.6476557  72.2953456
  26.0437904  92.7541538  62.1241151  25.7983946  91.8503868  62.3221361
  26.2133818  92.7558688  61.1820629  33.7334614  83.6265214  71.5065906
  34.2516557  84.3626241  71.1812395  33.3789746  83.9329208  72.3412666
  25.3133551  88.4869895  59.6227312  24.6202796  88.5614250  58.9667348
  25.0685303  87.7230239  60.1448829  33.9847208  80.0465497  67.0266803
  34.2648961  79.3788686  67.6527230  34.7697815  80.2394592  66.5141467
  31.7880676  99.2224491  58.5891829  31.2154643  99.8414678  58.1362301
  32.3613470  99.7723852  59.1231751  37.8556066  88.4683131  70.7738378
  38.8073489  88.5681228  70.7950602  37.6859516  87.6761399  71.2836462
  35.8770445  85.5538714  70.9597779  35.2820378  85.8343727  70.2644268
  35.5920142  86.0432615  71.7314520  35.0077936  99.5061641  59.7200412
  35.9408609  99.4407203  59.9233287  34.9201149 100.3417908  59.2614944
  37.6365953  98.8227511  56.6804359  37.5579584  98.4887375  57.5740117
  38.4575619  99.3149279  56.6795831  40.3344144  91.6889251  69.8880678
  40.3020464  90.7505251  70.0740362  40.9444767  91.7673287  69.1546503
  32.1727475  90.5585303  55.9307882  33.1186579  90.4291512  55.9996300
  31.7941720  89.8199965  56.4077310  40.4838632  88.4800294  69.9338961
  39.9677681  87.6958751  69.7468890  41.3678581  88.1519011  70.0985480
  38.1449359  82.2241310  65.8934774  37.9474180  81.9156398  66.7778106
  38.7549065  82.9502948  66.0232703  46.1520694  92.7505257  69.0286715
  46.8824082  92.4890545  69.5894418  45.5427639  92.0133979  69.0688783
  44.2335991  90.8913120  69.6261166  43.5069154  90.7569085  69.0177657
  43.8183278  91.1989949  70.4317884  32.0566167  94.6103050  77.3908539
  32.9769177  94.7881649  77.5848585  32.0215750  93.6659095  77.2388238
  30.3570392  88.4835280  55.8662767  29.4501847  88.1868393  55.9425481
  30.6346373  88.1865098  54.9997053  21.2748332  89.8041643  66.3161813
  20.9551117  88.9506951  66.0236187  20.7281760  90.0190221  67.0719781
  25.0528240  92.5204084  70.0331320  25.2714250  93.4521192  70.0519354
  25.4654014  92.1612059  70.8186124  31.9732458  83.0272170  62.0207008
  31.1633186  82.6819255  62.3962254  32.6616874  82.7179713  62.6094620
  33.9023006  82.1050216  63.6431305  34.4554044  82.5245670  64.3021328
  34.1393092  81.1785964  63.6854261  29.9256105  88.0937290  79.4234069
  29.8252832  89.0431647  79.3546160  29.7077647  87.7655529  78.5510139
  29.1269176  85.3422215  56.0074746  29.9888340  85.6677113  56.2670564
  29.3119521  84.5553711  55.4947812  21.1436592  93.4244555  68.2854935
  20.4500064  93.0098508  67.7724889  21.8909583  93.4665091  67.6888354
  37.2801813  84.2150742  63.1509969  36.7000482  84.8735546  62.7688022
  37.0137746  83.3928086  62.7397387  35.7305379  83.6155799  65.3531290
  36.2305158  83.7272334  64.5445608  36.3740987  83.3116852  65.9932098
  29.7887375  91.5234429  78.2399131  29.3054457  92.3234789  78.4463020
  29.8748314  91.5342374  77.2866575  23.0573335  93.3562809  66.1620950
  23.0344023  93.4550496  65.2102833  23.3673971  94.2027959  66.4838116
  25.7160713  95.4138964  70.2767564  26.6703966  95.3822906  70.2097496
  25.5173236  94.9529587  71.0917790  26.3060095  93.9840080  72.8438362
  27.1252984  94.4784158  72.8673199  26.5796902  93.0672048  72.8155929
  36.0626691  86.3750832  62.2066317  35.1752546  86.6600483  61.9886512
  36.4780680  86.2144595  61.3593594  39.4141227  86.3997353  65.9220657
  40.1901617  86.8893805  66.1945274  38.6889361  86.8255407  66.3792526
  41.8513786  87.1124972  66.9794597  42.4458277  86.8720708  66.2687906
  41.9240369  86.3932103  67.6068134  35.2069904  96.1395507  56.3014337
  35.9105755  96.3445509  56.9171993  34.4832553  96.7072268  56.5663421
  36.0367715  91.8905368  62.4216608  35.9802916  92.3473919  61.5824240
  36.5896057  91.1296052  62.2439450  39.8472521  87.6795100  63.2466727
  39.5909455  87.2791735  64.0774935  39.2225389  88.3938894  63.1216866
  44.1584858  90.4191173  65.7538019  43.5984416  90.4884362  66.5269581
  43.5528362  90.2432158  65.0337515  37.1156602  96.5778036  58.3512798
  37.9502206  96.1459234  58.1690272  36.9540945  96.4060049  59.2789692
  36.7702494  93.0810149  59.7169137  36.7151298  92.9154421  58.7757581
  36.1448549  93.7886182  59.8731327  21.5595009  88.3178213  73.5430559
  22.2053873  87.8077167  74.0317784  21.3512160  89.0546895  74.1173984
  34.0848401  95.3859061  79.0422700  34.9539561  95.5599713  78.6809335
  33.6055153  96.2053478  78.9198429  30.0798619  82.5818258  59.2954455
  30.0677289  83.5260098  59.4522726  30.9722041  82.3988404  59.0013916
  30.0088183 101.2587149  67.3822212  29.0583814 101.2589010  67.2686584
  30.3120670 100.5119883  66.8658246  33.8950739  79.1761035  63.5500392
  33.1283135  78.6219521  63.6957074  34.3061444  79.2482904  64.4114544
  25.8992500  85.4645831  77.6405573  26.7623962  85.1082635  77.8508898
  25.3257911  85.1259725  78.3280978  45.2982145 104.8199141  65.5221182
  46.0845235 104.4018564  65.1711599  45.5620850 105.7245233  65.6902831
  50.6990573 104.7574374  66.4254161  51.4315744 104.1873591  66.6591990
  49.9429928 104.3695974  66.8660666  48.2215993  98.4695948  70.8848769
  47.8899318  99.3391359  70.6609984  47.6261606  98.1532232  71.5642800
  41.9572179 102.2091515  58.6178852  42.1246582 103.0771752  58.9849323
  41.7669348 102.3718797  57.6940141  48.1144656 103.1891034  67.9642119
  47.2061534 103.1206443  67.6700880  48.0632252 103.6662979  68.7923945
  41.9361400 104.6649173  59.6025519  41.8161025 105.1106223  60.4410999
  41.2413988 105.0134490  59.0439057  42.1885522 104.6080680  75.9077017
  41.4118856 105.1674600  75.8979881  42.8276085 105.0937463  76.4291887
  49.9806303 101.3907473  69.7419993  49.3380683 101.6840006  69.0959788
  49.4761231 101.2760393  70.5473190  47.6346466 105.1370646  60.4305853
  48.5464322 105.3698033  60.2553550  47.1256113 105.7207690  59.8680931
  42.2718304 104.4967880  71.4400702  43.1179499 104.9207294  71.5835351
  42.2116942 103.8401505  72.1339265  45.4217749 102.1572249  73.0981876
  45.1778681 102.9114309  72.5616152  45.6977680 102.5357596  73.9329123
  44.9782441 101.3128682  68.6795714  44.1166920 101.6109935  68.9712451
  45.0044876 101.5299081  67.7476746  56.5808033 107.9221565  66.2966470
  55.8271741 107.3528963  66.1410475  56.7155574 107.8884230  67.2437105
  38.4574001  98.8726547  78.6335545  38.0640946  98.3192746  79.3083189
  39.2740141  99.1837126  79.0242062  41.3741962 100.2884426  76.2255801
  42.1151675 100.8891579  76.1460264  41.6059885  99.5462064  75.6673844
  45.3199125  96.3165529  70.5020083  44.9763394  97.2067171  70.4259194
  45.6878087  96.1267187  69.6389668  42.8696518 101.1523841  64.0677757
  42.0138115 100.7630692  63.8883395  43.2823470 101.2315802  63.2077542
  44.3995665  98.6870184  68.4669316  43.8960461  98.6500320  67.6537122
  44.6926272  99.5962927  68.5265973  40.6438551  98.7708914  67.4735498
  41.5091548  98.5751723  67.1141388  40.7116060  98.5419266  68.4004855
  45.0735711 104.1801232  60.8352299  44.7685846 104.4947382  61.6862443
  46.0266153 104.2582652  60.8779632  38.2500870 101.0011122  64.8451865
  38.8244622 100.7786304  64.1125058  38.8371852 101.0699817  65.5980466
  47.3080447 106.8884849  65.6516241  47.8212329 107.5214841  66.1537951
  47.9581671 106.2886044  65.2859601  38.5770457 103.0315583  58.8647750
  37.7407769 103.3690270  59.1857025  38.4375227 102.8964563  57.9274887
  40.5523538  97.8752371  63.5726934  39.8987950  97.5601388  62.9483549
  40.5104012  97.2528111  64.2986757  43.7861278 104.3634304  67.8974582
  42.8683839 104.5849251  67.7396270  44.2021422 104.4380615  67.0386289
  44.5696326 105.7625720  63.0277262  45.3168145 106.2747117  62.7184384
  44.8387915 105.4409773  63.8881656  47.0175163 102.7982836  65.0096051
  46.2797920 102.2860223  65.3406294  47.2701937 102.3583218  64.1979328
  47.1186790  95.5759088  65.6037821  47.4245667  94.7156452  65.3163736
  47.8439395  96.1676709  65.4036815  44.9274442 104.9531766  72.7019285
  45.2823829 105.1803239  73.5613750  45.5746573 105.2850142  72.0796540
  38.8214305 102.0608297  69.4865626  39.4613684 101.9197056  68.7888589
  37.9891835 101.7742810  69.1104228  35.8242921 102.0308622  64.2638612
  36.0849738 102.9453955  64.1547773  36.6460094 101.5633064  64.4135225
  37.2967847 103.4446379  71.4337437  37.9690900 103.2363741  70.7850086
  36.4697633 103.2468465  70.9942669  43.1993419 100.0708320  73.4503098
  42.5521334 100.7698269  73.3567574  43.9694434 100.5044464  73.8179346
  39.0406578 103.4174159  73.5019193  38.5043935 102.9664898  74.1540790
  38.4523287 103.5520068  72.7589658  38.4508837 102.8762811  56.0645657
  37.5738304 102.7551611  55.7007904  38.9266590 102.0848889  55.8124546
  44.9469414 101.0383730  65.9542383  45.4438113 100.2853693  65.6343453
  44.1756395 101.0748047  65.3885592  52.7999171 106.7424096  67.5960674
  52.7889047 107.6248811  67.2254607  51.9316550 106.3895647  67.4015211
  41.5304382 103.1801113  65.6814067  41.1602170 102.6272154  66.3694973
  42.0263475 102.5759247  65.1289067  49.4171746 105.6372737  64.0630840
  49.8832198 106.4700728  63.9891143  49.8679246 105.1717718  64.7676099
  47.3888408  98.0053324  68.1021742  46.4751488  98.2357551  68.2703949
  47.8181510  98.0891768  68.9535774  47.1594867 106.1943216  70.6021636
  46.5066317 106.4419123  69.9474088  47.5375247 105.3807354  70.2684113
  36.9269716 100.5905104  71.9267173  36.9911042 101.4519935  71.5144571
  36.8636836  99.9779106  71.1939532  36.4021988 102.6628237  75.5740208
  37.0294027 102.2805314  76.1877732  35.5449907 102.4442439  75.9395900
  36.7081778 102.5460662  67.4886111  35.9868364 103.1596630  67.3493584
  37.4975034 103.0818427  67.4102757  39.5108092  99.8815089  73.7626763
  40.0342494 100.1277385  74.5253072  39.2920425 100.7135124  73.3429900
  34.9075373 102.1518763  61.6297888  34.5788079 101.2716142  61.4472994
  35.2614743 102.0966432  62.5174277  38.0217196 102.4391733  61.9973365
  38.3613268 102.9677654  61.2751974  38.4689316 102.7772139  62.7731932
  40.7160637 100.8228784  71.4476433  40.3757457 100.0236597  71.8497113
  40.0099643 101.1230495  70.8753267  41.3677109  97.9078096  69.9003756
  42.1903178  97.4338575  69.7782647  41.6115172  98.6868580  70.4002443
  40.0085343 100.9366355  60.1966658  40.7293706 101.3147608  59.6930375
  39.3850647 101.6555232  60.3001636  44.1516466 101.6411504  61.1324990
  44.3680080 102.5236142  60.8313819  43.6710533 101.2497717  60.4030632
  40.7512070 101.5899765  67.7576625  40.7373639 100.6940858  67.4208923
  41.4684498 101.5970429  68.3914911  42.6038201 102.0237105  69.8029752
  42.3455979 102.9454176  69.8014082  42.0723241 101.6267540  70.4930216
  40.1548966 100.4714145  63.0264195  40.2764877  99.5430791  63.2255082
  39.8651009 100.4852831  62.1142510  43.0240157  98.1569056  66.1630915
  43.0461853  98.2208389  65.2082894  43.4408216  97.3173564  66.3571421
  53.4023781 107.8924315  64.2010137  53.8454927 107.1431640  63.8029260
  52.5250291 107.8834452  63.8183869  39.6390046 101.9846143  77.2354127
  39.6878201 102.8608265  76.8531897  40.1812560 101.4423536  76.6625771
  47.5346529 105.3610660  75.1447300  48.4356392 105.2217125  74.8531297
  47.6094503 105.5265115  76.0845477  41.8689334 102.7377515  73.9900486
  40.9992644 103.0311081  73.7183075  42.1048815 103.3217960  74.7107750
  52.9456646 109.3629554  66.5932585  53.7803537 109.8019358  66.7570145
  53.0815774 108.8868207  65.7740831  49.9948152 106.9209288  72.5410073
  50.4702273 107.1136935  71.7328924  49.0713717 106.9768474  72.2953456
  44.5728368  98.9557132  71.5065906  45.0910312  99.6918159  71.1812395
  44.2183501  99.2621125  72.3412666  44.8240962  95.3757414  67.0266803
  45.1042716  94.7080604  67.6527230  45.6091569  95.5686510  66.5141467
  48.6949821 103.7975048  70.7738378  49.6467243 103.8973146  70.7950602
  48.5253271 103.0053317  71.2836462  46.7164200 100.8830632  70.9597779
  46.1214132 101.1635644  70.2644268  46.4313897 101.3724533  71.7314520
  51.1737898 107.0181168  69.8880678  51.1414218 106.0797169  70.0740362
  51.7838522 107.0965205  69.1546503  43.0121229 105.8877221  55.9307882
  43.9580334 105.7583429  55.9996300  42.6335474 105.1491883  56.4077310
  51.3232387 103.8092212  69.9338961  50.8071435 103.0250668  69.7468890
  52.2072335 103.4810928  70.0985480  48.9843114  97.5533227  65.8934774
  48.7867935  97.2448315  66.7778106  49.5942819  98.2794866  66.0232703
  56.9914448 108.0797175  69.0286715  57.7217837 107.8182463  69.5894418
  56.3821394 107.3425897  69.0688783  55.0729745 106.2205038  69.6261166
  54.3462909 106.0861003  69.0177657  54.6577032 106.5281866  70.4317884
  41.1964146 103.8127198  55.8662767  40.2895602 103.5160310  55.9425481
  41.4740127 103.5157016  54.9997053  42.8126212  98.3564087  62.0207008
  42.0026940  98.0111172  62.3962254  43.5010629  98.0471631  62.6094620
  44.7416760  97.4342134  63.6431305  45.2947799  97.8537587  64.3021328
  44.9786847  96.5077882  63.6854261  40.7649860 103.4229208  79.4234069
  40.6646586 104.3723565  79.3546160  40.5471402 103.0947447  78.5510139
  39.9662931 100.6714133  56.0074746  40.8282095 100.9969031  56.2670564
  40.1513275  99.8845629  55.4947812  48.1195567  99.5442659  63.1509969
  47.5394236 100.2027463  62.7688022  47.8531500  98.7220004  62.7397387
  46.5699134  98.9447717  65.3531290  47.0698912  99.0564251  64.5445608
  47.2134742  98.6408770  65.9932098  46.9020445 101.7042750  62.2066317
  46.0146300 101.9892400  61.9886512  47.3174435 101.5436513  61.3593594
  50.2534982 101.7289271  65.9220657  51.0295372 102.2185723  66.1945274
  49.5283116 102.1547325  66.3792526  52.6907540 102.4416890  66.9794597
  53.2852031 102.2012626  66.2687906  52.7634124 101.7224020  67.6068134
  50.6866275 103.0087017  63.2466727  50.4303209 102.6083653  64.0774935
  50.0619143 103.7230811  63.1216866  54.9978613 105.7483091  65.7538019
  54.4378171 105.8176280  66.5269581  54.3922116 105.5724075  65.0337515
  40.9192374  97.9110176  59.2954455  40.9071044  98.8552016  59.4522726
  41.8115796  97.7280321  59.0013916  44.7344493  94.5052952  63.5500392
  43.9676889  93.9511439  63.6957074  45.1455198  94.5774821  64.4114544
  36.7386254 100.7937748  77.6405573  37.6017716 100.4374553  77.8508898
  36.1651665 100.4551643  78.3280978  57.9580545 110.9051006  65.6037821
  58.2639422 110.0448370  65.3163736  58.6833150 111.4968626  65.4036815
  55.6634717 110.7049332  67.0266803  55.9436470 110.0372521  67.6527230
  56.4485324 110.8978428  66.5141467  55.5738248 109.8344870  63.5500392
  54.8070644 109.2803357  63.6957074  55.9848953 109.9066739  64.4114544
   2.3865860  22.7842139  55.1713281   3.0244270  22.6648886  54.4676621
   2.2686703  23.7322983  55.2301233   1.9407129  20.5093593  52.2466489
   2.7270218  20.0913016  51.8956906   2.2045833  21.4139685  52.4148137
   2.1117206  25.9466443  46.9455146   1.4763039  26.0201069  47.6576050
   1.7814612  26.5360042  46.2674225   7.3415556  20.4468826  53.1499467
   8.0740728  19.8768043  53.3837297   6.5854912  20.0590426  53.5905973
   4.8640976  14.1590400  57.6094076   4.5324301  15.0285811  57.3855291
   4.2686590  13.8426684  58.2888106   1.3572496  26.3602946  57.0089989
   1.0573219  27.2627985  56.9005796   1.0123555  26.0935129  57.8611142
   4.7569639  18.8785486  54.6887426   3.8486517  18.8100895  54.3946187
   4.7057235  19.3557431  55.5169252   6.6231286  17.0801925  56.4665300
   5.9805666  17.3734458  55.8205095   6.1186214  16.9654845  57.2718497
   4.2771450  20.8265098  47.1551159   5.1889306  21.0592484  46.9798857
   3.7681097  21.4102142  46.5926238   2.5612217  25.2489726  60.7912452
   2.9695573  24.8072136  60.0467084   1.8389479  24.6742353  61.0446645
   2.8841032  25.8090916  54.5464741   2.2549894  25.9736630  53.8440809
   2.4966694  26.2232526  55.3175705   6.7630264  26.7445354  51.9009105
   6.0781302  27.1244255  51.3506138   6.8474113  27.3540681  52.6341052
   2.0642733  17.8466701  59.8227182   1.8203664  18.6008761  59.2861458
   2.3402663  18.2252048  60.6574430   4.0181195  24.3905313  58.5004448
   4.2298091  25.0337073  57.8238829   3.9710944  23.5567630  58.0326378
   1.6207424  17.0023134  55.4041020   0.7591903  17.3004387  55.6957758
   1.6469859  17.2193533  54.4722053   5.1327023  27.2677268  56.6726805
   5.9544467  26.8657456  56.3909487   5.1289426  27.1645503  57.6242921
  13.2233016  23.6116017  53.0211777  12.4696725  23.0423415  52.8655781
  13.3580558  23.5778681  53.9682412   2.3381359  29.3855786  60.8548240
   2.3199834  30.2064667  60.3628509   3.2601279  29.2609861  61.0798381
   1.9274391  21.9968592  45.7337825   1.4121014  22.7673197  45.9726212
   1.6551699  21.3233728  46.3570886   6.9008665  24.7500947  47.6690998
   6.1238108  24.4112106  47.2246160   7.5800146  24.7553570  46.9945963
   1.7160694  19.8695684  47.5597606   1.4110829  20.1841834  48.4107749
   2.6691136  19.9477104  47.6024939   5.1399972  24.2234928  54.3257606
   4.4823646  24.9134190  54.4137735   5.9440371  24.6131360  54.6691593
   3.9505431  22.5779301  52.3761548   4.4637312  23.2109293  52.8783258
   4.6006654  21.9780496  52.0104908   1.2127805  32.5563625  45.1322219
   0.5389504  32.8595322  45.7407177   1.5993627  33.3592705  44.7827676
   1.2121309  21.4520172  49.7522569   1.9593128  21.9641569  49.4429691
   1.4812899  21.1304225  50.6126962   4.7167227  27.5585302  50.5040691
   4.2629554  26.7176212  50.5605881   4.0861193  28.1946701  50.8415471
   3.6600146  18.4877288  51.7341358   2.9222903  17.9754675  52.0651601
   3.9126920  18.0477670  50.9224635   3.1600166  29.3961799  51.4390509
   3.4523140  29.9566856  50.7202874   3.6698787  29.6890360  52.1943668
   1.5699425  20.6426218  59.4264591   1.9248813  20.8697691  60.2859057
   2.2171556  20.9744594  58.8041846   7.2997162  23.7644653  50.1313920
   7.1615061  23.9546249  49.2035109   6.9433381  24.5264036  50.5881971
   7.3266542  25.8321180  55.1425192   7.7603048  25.7396470  55.9908246
   8.0398122  25.8078681  54.5045208   8.1882091  25.8744881  57.6758077
   8.3817981  26.7790692  57.9217352   8.0882709  25.4152300  58.5096662
   3.2497200  26.0251624  63.2498958   3.0982706  25.7962176  62.3329041
   3.2401879  26.9822225  63.2630303   3.3035275  24.3471838  43.6669659
   2.6864445  23.6218666  43.5702712   2.8351763  25.1081198  43.3236734
   4.9589406  29.0570746  61.3275440   4.9001953  28.3729967  60.6606023
   5.3608925  29.7989736  60.8756066   4.9606814  27.0210330  59.5589419
   4.0733592  26.6836252  59.6815818   5.5305365  26.2893362  59.7958185
   1.5894397  16.7278182  52.6787689   2.0863096  15.9748145  52.3588760
   0.8181378  16.7642499  52.1130899   9.4424154  22.4318548  54.3205981
   9.4314030  23.3143263  53.9499914   8.5741534  22.0790099  54.1260518
   0.9506651  31.5798617  58.6808821   1.6634623  32.2146082  58.6084723
   0.4596679  31.6762483  57.8648823   2.6724178  25.4849869  50.2526113
   1.7380456  25.6051332  50.0830817   2.8500846  24.5822336  49.9886123
   6.0596729  21.3267189  50.7876147   6.5257181  22.1595180  50.7136450
   6.5104229  20.8612170  51.4921405   4.1272960  27.6711010  47.7862299
   4.4032804  27.5567605  48.6956173   3.2577459  27.2728495  47.7474472
   3.8019850  21.8837668  57.3266942   3.1491300  22.1313575  56.6719395
   4.1800230  21.0701806  56.9929420   0.7627024  31.9197361  51.4295113
   0.9449419  31.1019017  51.8922865   1.5860010  32.1365053  50.9920003
   1.0969189  30.8465546  48.6910161   1.6256956  30.3358001  48.0780323
   1.3597409  30.5308076  49.5555694   3.4441080  28.7585664  63.9039250
   3.9880984  29.3715622  63.4094205   2.8627925  29.3165242  64.4206263
   1.7298593  31.8806382  55.0354278   1.6049733  31.0796122  54.5265223
   2.3877684  32.3752575  54.5468248   3.7933502  29.6815402  56.6633828
   2.8463837  29.5620753  56.5912154   4.1416275  28.7937900  56.7460089
   0.7979935  29.4768118  52.8638180   0.6504897  28.5484825  53.0445750
   1.6233428  29.4988209  52.3795255   4.4014057  30.2996677  53.9503053
   5.3260604  30.0939538  53.8127504   4.2329360  30.0513078  54.8592394
   4.1909373  30.8182344  49.3065144   4.3646251  30.2528767  48.5538997
   4.6838264  31.6183239  49.1244634  10.0448764  23.5818767  50.9255444
  10.4879910  22.8326092  50.5274567   9.1675274  23.5728904  50.5429176
   5.1784546  30.1349109  46.4062042   5.8735450  30.7555801  46.6249357
   5.5207696  29.2844460  46.6814420   7.0775969  27.5848814  47.9349373
   7.6027293  27.9236087  47.2098693   6.9898321  26.6495829  47.7512508
   6.7669875  28.2181718  63.2400571   5.9765418  28.2005857  62.7005071
   6.5303229  28.7570011  63.9949608   6.8867750  25.0674184  60.5533300
   6.9365755  24.9024192  61.4948822   6.7781673  24.2001443  60.1631180
   4.1771512  21.0505112  61.8692606   5.0781375  20.9111577  61.5776604
   4.2519487  21.2159567  62.8090784   8.3885947  27.4871126  60.7975321
   8.0970755  27.8501106  61.6338782   7.7758078  26.7738134  60.6188653
   9.5881629  25.0524005  53.3177891  10.4228520  25.4913810  53.4815452
   9.7240758  24.5762659  52.4986137   6.6373135  22.6103740  59.2655379
   7.1127256  22.8031387  58.4574231   5.7138700  22.6662926  59.0198763
   5.3374804  19.4869500  57.4983685   6.2892227  19.5867598  57.5195909
   5.1678254  18.6947769  58.0081769   3.3589183  16.5725084  57.6843086
   2.7639115  16.8530096  56.9889574   3.0738880  17.0618985  58.4559827
   2.4896674  30.5248010  46.4445718   3.4227347  30.4593572  46.6478594
   2.4019887  31.3604277  45.9860251   5.1184690  29.8413881  43.4049666
   5.0398322  29.5073744  44.2985424   5.9394357  30.3335649  43.4041138
   7.8162882  22.7075620  56.6125984   7.7839202  21.7691621  56.7985668
   8.4263505  22.7859657  55.8791809   7.9657370  19.4986663  56.6584268
   7.4496419  18.7145120  56.4714196   8.8497319  19.1705380  56.8230787
   5.6268097  13.2427679  52.6180080   5.4292918  12.9342767  53.5023412
   6.2367803  13.9689318  52.7478010  13.6339431  23.7691627  55.7532021
  14.3642820  23.5076915  56.3139725  13.0246377  23.0320349  55.7934089
  11.7154729  21.9099489  56.3506472  10.9887892  21.7755454  55.7422964
  11.3002015  22.2176318  57.1563190   4.7620551  15.2337111  49.8755276
   4.1819220  15.8921915  49.4933328   4.4956483  14.4114456  49.4642693
   3.2124117  14.6342169  52.0776596   3.7123895  14.7458703  51.2690915
   3.8559725  14.3303222  52.7177405   3.5445429  17.3937201  48.9311624
   2.6571284  17.6786852  48.7131819   3.9599418  17.2330965  48.0838901
   6.8959965  17.4183722  52.6465963   7.6720355  17.9080175  52.9190580
   6.1708099  17.8441777  53.1037833   9.3332523  18.1311342  53.7039904
   9.9277014  17.8907078  52.9933212   9.4059107  17.4118472  54.3313440
   2.6888642  27.1581876  43.0259644   3.3924492  27.3631879  43.6417300
   1.9651291  27.7258638  43.2908728   3.5186452  22.9091737  49.1461914
   3.4621654  23.3660289  48.3069547   4.0714795  22.1482422  48.9684757
   7.3291258  18.6981469  49.9712034   7.0728193  18.2978105  50.8020241
   6.7044126  19.4125263  49.8462173  11.6403596  21.4377543  52.4783325
  11.0803154  21.5070732  53.2514887  11.0347100  21.2618527  51.7582821
   4.5975340  27.5964405  45.0758104   5.4320944  27.1645604  44.8935579
   4.4359683  27.4246419  46.0034999   4.2521232  24.0996519  46.4414443
   4.1970036  23.9340790  45.5002888   3.6267287  24.8072552  46.5976633
   1.5667139  26.4045431  65.7668006   2.4358299  26.5786083  65.4054641
   1.0873890  27.2239847  65.6443736  13.2259615  38.1134056  55.1713281
  13.8638025  37.9940804  54.4676621  13.1080458  39.0614900  55.2301233
  10.0349321  38.0661485  55.1074806   9.6967832  37.9502549  54.2195340
  10.9039089  37.6652650  55.0875812   5.8936137  39.9196961  51.0971697
   5.3301002  39.8286898  50.3287984   5.7788532  39.0996865  51.5774189
  10.5169104  39.2196336  61.0661011  10.5057745  38.8249135  60.1941515
  10.6789743  38.4862409  61.6594783   3.4400569  41.4148153  53.9355917
   4.2321861  41.0738977  53.5202216   3.6797219  41.5243128  54.8558070
  11.4735695  43.5867929  46.4086161  10.8223675  44.1722009  46.0220175
  12.2680058  44.1174124  46.4681199   5.3991323  40.6757066  46.8073296
   6.1722199  40.1286053  46.6686172   5.7516721  41.5401315  47.0187757
   7.2376365  42.0033448  60.0140195   6.9466231  42.9079079  59.8986861
   7.8733349  42.0449976  60.7284265   8.1632572  39.3810297  56.6041555
   8.7596144  39.1566319  55.8898518   8.2207543  38.6395042  57.2067003
   7.7357600  36.8349732  44.4391746   7.9883121  36.3131253  43.6775209
   6.7982159  36.6715877  44.5418429  12.7800883  35.8385510  52.2466489
  13.5663972  35.4204933  51.8956906  13.0439588  36.7431603  52.4148137
  12.9510961  41.2758361  46.9455146  12.3156794  41.3492987  47.6576050
  12.6208367  41.8651959  46.2674225  18.1809310  35.7760744  53.1499467
  18.9134482  35.2059960  53.3837297  17.4248666  35.3882344  53.5905973
   7.4553889  38.7377838  46.6416121   7.3390147  38.0622741  47.3097205
   7.5656149  38.2510212  45.8248274   9.7985430  38.1987985  50.3462810
   9.4343637  37.6718606  51.0575731  10.6552546  37.8086454  50.1729295
  15.7034731  29.4882318  57.6094076  15.3718055  30.3577729  57.3855291
  15.1080344  29.1718602  58.2888106   9.4390917  33.2277885  45.3424158
   9.6065319  34.0958121  45.7094629   9.2488086  33.3905166  44.4185448
  12.1966250  41.6894864  57.0089989  11.8966973  42.5919902  56.9005796
  11.8517310  41.4227047  57.8611142   5.6478732  38.1408660  53.0426693
   4.7229228  38.0084875  53.2504385   5.8963145  38.9202880  53.5396636
  15.5963394  34.2077404  54.6887426  14.6880271  34.1392812  54.3946187
  15.5450990  34.6849349  55.5169252   9.4180138  35.6835542  46.3270825
   9.2979763  36.1292593  47.1656306   8.7232726  36.0320860  45.7684363
   3.0087543  37.7841934  53.8770482   3.1379924  38.0376413  54.7909894
   2.3284994  38.3769642  53.5575137   7.1787030  48.4539184  49.9760956
   7.1011060  49.4047009  50.0549437   6.5748674  48.1085056  50.6335883
   9.6704260  35.6267049  62.6322323   8.8937594  36.1860970  62.6225188
  10.3094823  36.1123832  63.1537194  17.4625040  32.4093842  56.4665300
  16.8199421  32.7026375  55.8205095  16.9579969  32.2946763  57.2718497
  15.1165204  36.1557015  47.1551159  16.0283060  36.3884402  46.9798857
  14.6074851  36.7394060  46.5926238   7.9250632  38.4352503  62.1940290
   8.6665316  38.9737547  61.9175114   7.2187618  39.0618792  62.3511842
  13.4005972  40.5781643  60.7912452  13.8089328  40.1364054  60.0467084
  12.6783233  40.0034271  61.0446645   9.7537042  35.5154250  58.1646009
  10.5998237  35.9393664  58.3080658   9.6935679  34.8587874  58.8584572
  13.7234786  41.1382834  54.5464741  13.0943649  41.3028548  53.8440809
  13.3360448  41.5524443  55.3175705  17.6024018  42.0737272  51.9009105
  16.9175056  42.4536173  51.3506138  17.6867868  42.6832598  52.6341052
  12.9036487  33.1758618  59.8227182  12.6597419  33.9300679  59.2861458
  13.1796418  33.5543966  60.6574430  14.8574950  39.7197231  58.5004448
  15.0691845  40.3628991  57.8238829  14.8104698  38.8859547  58.0326378
  12.4601179  32.3315051  55.4041020  11.5985658  32.6296305  55.6957758
  12.4863613  32.5485450  54.4722053   9.2762748  40.8757242  51.8114826
   9.7401094  41.1544945  51.0219448   9.0119546  39.9740687  51.6287917
   6.1686829  40.4228723  54.7494589   6.7388186  40.8515992  54.1112074
   6.7594941  40.1411308  55.4478775   8.2131634  36.9980394  48.6204391
   8.9155678  37.4501438  49.0878317   7.8812263  36.3564213  49.2484284
   6.6611996  35.5892151  62.9955600   6.0310656  36.2708432  63.2290997
   6.5548084  35.4775233  62.0508739   1.9556968  35.2563947  53.9221525
   1.1656022  35.5121476  53.4461635   2.4468216  36.0712285  54.0273565
  15.9720778  42.5969186  56.6726805  16.7938222  42.1949373  56.3909487
  15.9683181  42.4937420  57.6242921   3.9071714  35.6208526  50.8805001
   3.1102877  35.7327220  51.3988497   3.6797306  35.9595178  50.0145892
   9.7377381  42.1453229  58.8287516   9.8021814  42.6073637  59.6645688
   9.0288305  41.5150594  58.9569826  24.0626771  38.9407935  53.0211777
  23.3090479  38.3715333  52.8655781  24.1974312  38.9070599  53.9682412
   9.4525399  43.8121337  48.6966496   9.3171074  44.6572873  49.1251344
   9.9935211  44.0140615  47.9332430   5.9392739  29.8912917  65.3580851
   5.5459684  29.3379115  66.0328496   6.7558879  30.2023495  65.7487369
   2.9054796  41.3296775  49.2694421   3.4179317  42.1240025  49.4199986
   3.5577509  40.6323065  49.2028023   4.7149681  44.4462531  51.3517174
   4.8916309  45.3680496  51.1638158   5.5106515  44.1320950  51.7811554
   8.8560700  31.3070796  62.9501108   9.5970413  31.9077949  62.8705570
   9.0878622  30.5648434  62.3919151   4.0002038  36.4927163  61.2279338
   3.8855553  35.5912420  61.5286437   3.1446555  36.7390860  60.8764154
  11.0793875  44.4344903  62.8266838  10.6357729  43.6481282  62.5087743
  11.7411089  44.6224054  62.1610729   5.8380996  45.9640705  57.3527517
   6.3888422  45.8357768  56.5804511   4.9992472  46.2635594  57.0022410
  13.1775113  44.7147703  60.8548240  13.1593589  45.5356584  60.3628509
  14.0995033  44.5901779  61.0798381   9.6348168  42.2291833  61.6971748
  10.1676504  41.4680121  61.4671056   9.1062249  41.9365485  62.4395902
  12.8017862  27.3351899  57.2265390  12.4582132  28.2253540  57.1504500
  13.1696825  27.1453556  56.3634975   0.8703713  39.6585429  50.0453992
   1.7078935  40.0682438  49.8287700   1.0481981  38.7184871  50.0154186
  12.7668145  37.3260510  45.7337825  12.2514769  38.0965115  45.9726212
  12.4945454  36.6525646  46.3570886  10.3515256  32.1710211  50.7923063
   9.4956853  31.7817061  50.6128702  10.7642208  32.2502171  49.9322849
  11.8814403  29.7056554  55.1914623  11.3779198  29.6686689  54.3782428
  12.1745010  30.6149297  55.2511280   8.1257289  29.7895284  54.1980805
   8.9910286  29.5938092  53.8386694   8.1934798  29.5605635  55.1250161
  17.7402419  40.0792865  47.6690998  16.9631862  39.7404024  47.2246160
  18.4193900  40.0845488  46.9945963  12.5554448  35.1987602  47.5597606
  12.2504584  35.5133751  48.4107749  13.5084890  35.2769022  47.6024939
  11.0000880  41.3577825  49.2090560  10.4722242  40.6230585  48.8963797
  10.4988383  42.1352502  48.9630528  15.9793726  39.5526846  54.3257606
  15.3217401  40.2426107  54.4137735  16.7834125  39.9423278  54.6691593
   5.7319608  32.0197492  51.5697171   6.3063360  31.7972673  50.8370364
   6.3190590  32.0886186  52.3225773  14.7899185  37.9071219  52.3761548
  15.3031067  38.5401210  52.8783258  15.4400409  37.3072414  52.0104908
   6.0589195  34.0501953  45.5893057   5.2226507  34.3876639  45.9102331
   5.9193965  33.9150932  44.6520194   8.0342276  28.8938741  50.2972241
   7.3806688  28.5787758  49.6728856   7.9922750  28.2714481  51.0232064
   9.1453480  39.1758036  42.2125533   8.2380542  38.9447289  42.4116682
   9.6424512  38.3795655  42.3999515  12.0521559  47.8855543  45.1322219
  11.3783258  48.1887240  45.7407177  12.4387381  48.6884623  44.7827676
  11.2680016  35.3820674  54.6219889  10.3502577  35.6035621  54.4641577
  11.6840160  35.4566985  53.7631596  12.0515064  36.7812090  49.7522569
  12.7986883  37.2933487  49.4429691  12.3206653  36.4596142  50.6126962
  10.3241714  39.2770630  46.7349523   9.4152933  38.9929663  46.8321993
  10.3536798  39.6969709  45.8752830  15.5560981  42.8877220  50.5040691
  15.1023308  42.0468130  50.5605881  14.9254948  43.5238618  50.8415471
  14.4993901  33.8169206  51.7341358  13.7616658  33.3046592  52.0651601
  14.7520674  33.3769588  50.9224635  13.9993920  44.7253717  51.4390509
  14.2916895  45.2858774  50.7202874  14.5092541  45.0182278  52.1943668
  14.6005528  26.5945458  52.3283127  14.9064405  25.7342821  52.0409042
  15.3258133  27.1863078  52.1282121   8.8726608  36.8899251  52.8359318
   8.9275218  35.9373087  52.7601795   8.0617810  37.0458690  53.3200617
  10.0217802  40.8179374  44.0737602   9.5837232  40.1015233  43.6143239
  10.7628242  41.0455489  43.5122693   6.8118968  35.5076311  50.5949697
   5.9986833  35.8070481  51.0014889   7.3077962  35.1132000  51.3124180
   8.9627546  45.5034068  52.5283962   8.9203724  45.7294914  51.5992494
   9.8790245  45.2697442  52.6769763  12.4093179  35.9718135  59.4264591
  12.7642567  36.1989608  60.2859057  13.0565311  36.3036512  58.8041846
  18.1390916  39.0936571  50.1313920  18.0008815  39.2838167  49.2035109
  17.7827135  39.8555954  50.5881971   6.3033043  33.0794666  56.2110932
   6.9432422  32.9383425  55.5133896   5.4710573  32.7929180  55.8349534
  18.1660296  41.1613098  55.1425192  18.5996803  41.0688387  55.9908246
  18.8791877  41.1370599  54.5045208   7.0793346  42.3797097  52.3245925
   7.8733945  41.8847417  52.1228500   6.3685039  41.8514960  51.9613630
  11.8988191  44.7615192  56.6758292  11.9525213  45.3306129  57.4436008
  11.0302972  44.9317077  56.3112329   3.3876110  36.5240178  48.4005677
   2.4573698  36.4624634  48.6175640   3.4833582  36.0016131  47.6042319
   3.3061659  33.0494991  50.9883919   3.5668476  33.9640325  50.8793080
   4.1278831  32.5819434  51.1380532   4.7786584  34.4632748  58.1582744
   5.4509638  34.2550111  57.5095393   3.9516371  34.2654834  57.7187976
  19.0275846  41.2036799  57.6758077  19.2211736  42.1082609  57.9217352
  18.9276464  40.7444218  58.5096662  10.6812156  31.0894689  60.1748404
  10.0340071  31.7884639  60.0812881  11.4513172  31.5230833  60.5424653
  14.0890954  41.3543542  63.2498958  13.9376461  41.1254093  62.3329041
  14.0795634  42.3114143  63.2630303  10.8576291  38.9275454  58.2345224
  11.7868351  39.0786614  58.0614192  10.4367321  39.0159475  57.3793871
   9.6564622  42.9526119  56.0043762   9.5175708  42.5844903  56.8769700
   8.8679219  43.4673758  55.8327720  10.2512774  48.0535215  47.3469298
  10.4264530  47.5823258  48.1614921   9.5645562  48.6800981  47.5750559
  11.2069838  42.3307721  53.3932600  10.8719670  42.2908491  54.2890249
  10.7073783  41.6652437  52.9203010   5.1814082  37.7375351  58.9185181
   5.0433879  37.0055590  59.5196720   6.0919005  37.6484252  58.6369369
  14.1429029  39.6763756  43.6669659  13.5258200  38.9510584  43.5702712
  13.6745518  40.4373116  43.3236734   7.8096382  37.4495311  58.4068860
   8.5196001  36.8088503  58.3655479   7.7665690  37.7008206  59.3295041
  15.7983161  44.3862664  61.3275440  15.7395707  43.7021884  60.6606023
  16.2002679  45.1281654  60.8756066   6.5225316  34.4360529  60.2264500
   5.9862673  33.9851267  60.8786096   5.9342025  34.5706438  59.4834964
   4.8173860  51.2024578  54.1209159   5.0570458  51.8343102  54.7988177
   3.9743056  50.8512618  54.4074518   5.9327575  33.8949180  42.7890964
   5.0557041  33.7737981  42.4253210   6.4085328  33.1035258  42.5369852
  15.8000568  42.3502248  59.5589419  14.9127347  42.0128170  59.6815818
  16.3699119  41.6185279  59.7958185   2.2564437  33.5716536  57.3117494
   2.1722626  32.9642206  56.5767904   1.4347144  34.0625555  57.3126991
   9.3301722  47.0103700  56.5250663   9.2571893  47.8158672  57.0369967
   8.8879115  47.2095666  55.6998684   9.1191501  46.2475470  50.0353484
   8.3359023  46.7897151  50.1291709   9.8184246  46.7649450  50.4347725
  12.4288151  32.0570100  52.6787689  12.9256851  31.3040062  52.3588760
  11.6575133  32.0934417  52.1130899  20.2817909  37.7610465  54.3205981
  20.2707785  38.6435181  53.9499914  19.4135288  37.4082016  54.1260518
  11.7900405  46.9090534  58.6808821  12.5028377  47.5437999  58.6084723
  11.2990434  47.0054400  57.8648823  13.5117932  40.8141787  50.2526113
  12.5774211  40.9343250  50.0830817  13.6894600  39.9114254  49.9886123
   9.0123120  34.1987483  52.4059374   8.6420908  33.6458523  53.0940280
   9.5082213  33.5945616  51.8534374  16.8990483  36.6559106  50.7876147
  17.3650936  37.4887098  50.7136450  17.3497984  36.1904088  51.4921405
   6.8412319  44.6584978  59.5014392   7.5421778  45.2921461  59.6543786
   6.3707434  44.9999709  58.7410031  14.9666714  43.0002928  47.7862299
  15.2426558  42.8859522  48.6956173  14.0971213  42.6020413  47.7474472
  14.8707146  29.0239693  54.8267048  13.9570226  29.2543920  54.9949255
  15.3000248  29.1078137  55.6781081  14.6413605  37.2129585  57.3266942
  13.9885055  37.4605493  56.6719395  15.0193984  36.3993724  56.9929420
  11.6020778  47.2489279  51.4295113  11.7843173  46.4310934  51.8922865
  12.4253764  47.4656971  50.9920003  11.9362944  46.1757464  48.6910161
  12.4650710  45.6649918  48.0780323  12.1991164  45.8599994  49.5555694
  10.6901178  37.9549396  63.8132979  10.0141815  37.8543526  64.4835355
  11.5128811  37.7988610  64.2768977   2.4380037  44.1921333  56.4345495
   3.0233473  43.4465021  56.5673399   2.2404875  44.5025290  57.3182159
   5.2918692  47.2272580  51.4507937   4.6229067  47.7118708  50.9671977
   5.1531562  47.4741801  52.3651316   9.4323960  49.2616324  58.0490595
   9.9842269  49.4247945  58.8139681   9.7730154  49.8520762  57.3770620
   4.4088454  31.6091474  58.6512480   4.4729780  32.4706305  58.2389878
   4.3455574  30.9965475  57.9184839   3.8840726  33.6814606  62.2985514
   4.5112765  33.2991684  62.9123039   3.0268645  33.4628808  62.6641207
  14.2834835  44.0877581  63.9039250  14.8274739  44.7007540  63.4094205
  13.7021680  44.6457160  64.4206263  12.5692348  47.2098299  55.0354278
  12.4443487  46.4088039  54.5265223  13.2271439  47.7044493  54.5468248
   4.1900516  33.5647032  54.2131418   3.4687102  34.1783000  54.0738891
   4.9793772  34.1004797  54.1348064  14.6327256  45.0107319  56.6633828
  13.6857592  44.8912671  56.5912154  14.9810029  44.1229818  56.7460089
   6.9926830  30.9001458  60.4872070   7.5161231  31.1463755  61.2498379
   6.7739163  31.7321493  60.0675207   2.3894111  33.1705133  48.3543194
   2.0606817  32.2902512  48.1718300   2.7433481  33.1152802  49.2419584
  11.6373689  44.8060036  52.8638180  11.4898652  43.8776743  53.0445750
  12.4627183  44.8280126  52.3795255   5.5035934  33.4578103  48.7218672
   5.8432006  33.9864024  47.9997280   5.9508054  33.7958509  49.4977239
  15.2407811  45.6288594  53.9503053  16.1654359  45.4231456  53.8127504
  15.0723115  45.3804996  54.8592394   8.1979375  31.8415154  58.1721740
   7.8576195  31.0422967  58.5742420   7.4918381  32.1416864  57.5998573
   8.8495846  28.9264466  56.6249063   9.6721916  28.4524944  56.5027953
   9.0933910  29.7054950  57.1247749   7.4904081  31.9552724  46.9211965
   8.2112443  32.3333977  46.4175682   6.8669385  32.6741601  47.0246943
  11.6335204  32.6597873  47.8570297  11.8498818  33.5422511  47.5559125
  11.1529271  32.2684087  47.1275939   6.3734425  35.6183587  54.4341042
   6.2279006  35.9323890  55.3265323   5.8959629  36.2368487  53.8811940
   8.2330808  32.6086135  54.4821931   8.2192377  31.7127228  54.1454229
   8.9503236  32.6156798  55.1160217  10.0856939  33.0423475  56.5275059
   9.8274717  33.9640545  56.5259389   9.5541979  32.6453909  57.2175523
  15.0303128  46.1474262  49.3065144  15.2040005  45.5820684  48.5538997
  15.5232019  46.9475157  49.1244634   7.6367704  31.4900515  49.7509501
   7.7583615  30.5617161  49.9500389   7.3469746  31.5039201  48.8387817
  10.5058894  29.1755425  52.8876221  10.5280591  29.2394758  51.9328201
  10.9226953  28.3359934  53.0816727  20.8842519  38.9110685  50.9255444
  21.3273665  38.1618010  50.5274567  20.0069029  38.9020821  50.5429176
  16.0178300  45.4641026  46.4062042  16.7129205  46.0847719  46.6249357
  16.3601450  44.6136378  46.6814420   1.6346109  37.2858827  60.2658860
   0.8927845  37.4341463  60.8523490   1.3138853  37.5467093  59.4025609
  17.9169723  42.9140732  47.9349373  18.4421047  43.2528005  47.2098693
  17.8292076  41.9787747  47.7512508   9.5789772  46.8274805  60.0639250
   9.8876898  46.5823952  60.9361949  10.3765254  47.0321444  59.5758120
   9.6010384  48.9812715  52.2944626   9.1615374  48.4889094  52.9877483
  10.3518501  48.4385683  52.0536702   2.0802723  45.1724256  52.2969254
   2.9060743  44.8728028  51.9167898   1.7296775  44.4031878  52.7459043
   7.0484256  44.5250724  54.3666928   6.4264265  43.8621429  54.0669156
   7.7189123  44.5511856  53.6840576   7.1208784  33.0032512  63.9599434
   7.1696939  33.8794635  63.5777204   7.6631298  32.4609905  63.3871077
  17.6063629  43.5473635  63.2400571  16.8159173  43.5297774  62.7005071
  17.3696984  44.0861929  63.9949608  17.7261504  40.3966102  60.5533300
  17.7759509  40.2316109  61.4948822  17.6175428  39.5293361  60.1631180
   6.6097763  43.0754648  47.8425389   6.7585883  43.7590112  47.1892061
   7.4164206  43.0559738  48.3574844  15.0165267  36.3797030  61.8692606
  15.9175129  36.2403495  61.5776604  15.0913241  36.5451485  62.8090784
   9.3508072  33.7563885  60.7145793   8.4811381  34.0497451  60.4428381
   9.5867552  34.3404330  61.4353056  19.2279701  42.8163043  60.7975321
  18.9364509  43.1793024  61.6338782  18.6151832  42.1030052  60.6188653
  20.4275383  40.3815923  53.3177891  21.2622275  40.8205727  53.4815452
  20.5634512  39.9054576  52.4986137  17.4766889  37.9395658  59.2655379
  17.9521011  38.1323304  58.4574231  16.5532455  37.9954844  59.0198763
   4.3650396  39.1019825  48.8486457   4.1196438  38.1982155  49.0466668
   4.5346310  39.1036976  47.9065935  12.0547106  29.9743502  58.2311213
  12.5729050  30.7104528  57.9057702  11.7002239  30.2807495  59.0657972
   3.6346043  34.8348183  46.3472619   2.9415288  34.9092538  45.6912655
   3.3897795  34.0708526  46.8694136  12.3059700  26.3943784  53.7512110
  12.5861454  25.7266973  54.3772536  13.0910307  26.5872880  53.2386773
  10.1093168  45.5702778  45.3137136   9.5367136  46.1892965  44.8607608
  10.6825962  46.1202140  45.8477058  16.1768558  34.8161418  57.4983685
  17.1285981  34.9159516  57.5195909  16.0072009  34.0239687  58.0081769
  14.1982938  31.9017001  57.6843086  13.6032870  32.1822014  56.9889574
  13.9132634  32.3910902  58.4559827  13.3290428  45.8539928  46.4445718
  14.2621101  45.7885490  46.6478594  13.2413641  46.6896195  45.9860251
  15.9578445  45.1705798  43.4049666  15.8792076  44.8365662  44.2985424
  16.7788112  45.6627566  43.4041138  18.6556636  38.0367538  56.6125984
  18.6232956  37.0983538  56.7985668  19.2657260  38.1151574  55.8791809
  10.4939967  36.9063591  42.6553188  11.4399072  36.7769799  42.7241606
  10.1154212  36.1678253  43.1322617  18.8051125  34.8278581  56.6584268
  18.2890173  34.0437038  56.4714196  19.6891073  34.4997298  56.8230787
  16.4661851  28.5719597  52.6180080  16.2686673  28.2634685  53.5023412
  17.0761557  29.2981236  52.7478010  24.4733186  39.0983545  55.7532021
  25.2036574  38.8368833  56.3139725  23.8640131  38.3612267  55.7934089
  22.5548483  37.2391407  56.3506472  21.8281647  37.1047372  55.7422964
  22.1395770  37.5468236  57.1563190  10.3778659  40.9581337  64.1153845
  11.2981669  41.1359936  64.3093892  10.3428243  40.0137382  63.9633545
   8.6782884  34.8313567  42.5908074   7.7714339  34.5346680  42.6670787
   8.9558865  34.5343385  41.7242360   3.3740732  38.8682372  56.7576627
   3.5926742  39.7999479  56.7764660   3.7866506  38.5090346  57.5431430
  10.2944950  29.3750457  48.7452315   9.4845678  29.0297542  49.1207561
  10.9829367  29.0658001  49.3339927  12.2235498  28.4528504  50.3676612
  12.7766537  28.8723957  51.0266635  12.4605584  27.5264252  50.4099568
   8.2468597  34.4415577  66.1479376   8.1465324  35.3909934  66.0791467
   8.0290139  34.1133816  65.2755446   7.4481669  31.6900502  42.7320053
   8.3100833  32.0155401  42.9915870   7.6332013  30.9031998  42.2193119
  15.6014305  30.5629029  49.8755276  15.0212974  31.2213833  49.4933328
  15.3350238  29.7406373  49.4642693  14.0517872  29.9634086  52.0776596
  14.5517650  30.0750621  51.2690915  14.6953479  29.6595139  52.7177405
   8.1099867  37.8712716  64.9644437   7.6266949  38.6713076  65.1708326
   8.1960806  37.8820661  64.0111881   1.3785827  39.7041096  52.8866257
   1.3556515  39.8028783  51.9348140   1.6886463  40.5506247  53.2083423
   4.0373205  41.7617251  57.0012871   4.9916458  41.7301193  56.9342803
   3.8385728  41.3007875  57.8163097   4.6272587  40.3318367  59.5683669
   5.4465476  40.8262446  59.5918506   4.9009395  39.4150335  59.5401236
  14.3839183  32.7229119  48.9311624  13.4965038  33.0078770  48.7131819
  14.7993172  32.5622883  48.0838901  17.7353719  32.7475640  52.6465963
  18.5114109  33.2372093  52.9190580  17.0101854  33.1733694  53.1037833
  20.1726278  33.4603259  53.7039904  20.7670769  33.2198995  52.9933212
  20.2452862  32.7410390  54.3313440   2.3923434  47.3036870  54.0183069
   2.2577902  46.5437271  53.4521067   1.9755496  48.0277770  53.5511858
  13.5282397  42.4873794  43.0259644  14.2318247  42.6923796  43.6417300
  12.8045045  43.0550556  43.2908728  14.3580207  38.2383655  49.1461914
  14.3015408  38.6952207  48.3069547  14.9108549  37.4774340  48.9684757
  18.1685013  34.0273387  49.9712034  17.9121947  33.6270023  50.8020241
  17.5437881  34.7417181  49.8462173  22.4797351  36.7669460  52.4783325
  21.9196909  36.8362650  53.2514887  21.8740854  36.5910445  51.7582821
   5.5492560  48.2006187  54.2301511   5.4324944  49.1451620  54.1280202
   4.7285006  47.8979749  54.6187311  15.4369094  42.9256323  45.0758104
  16.2714698  42.4937522  44.8935579  15.2753437  42.7538337  46.0034999
  15.0914986  39.4288436  46.4414443  15.0363790  39.2632708  45.5002888
  14.4661042  40.1364469  46.5976633  12.4060893  41.7337348  65.7668006
  13.2752053  41.9078000  65.4054641  11.9267645  42.5531765  65.6443736
   8.4011112  28.9296545  46.0199762   8.3889782  29.8738385  46.1768033
   9.2934534  28.7466691  45.7259223   6.5747074  48.8534449  57.4457440
   7.4774320  48.8858059  57.7623935   6.3484444  47.9234900  57.4603776
   8.3300676  47.6065436  54.1067519   7.3796307  47.6067297  53.9931891
   8.6333162  46.8598170  53.5903553  12.2163231  25.5239322  50.2745699
  11.4495627  24.9697809  50.4202381  12.6273936  25.5961191  51.1359850
   4.2204992  31.8124118  64.3650880   5.0836454  31.4560923  64.5754204
   3.6470403  31.4738013  65.0526284  24.0653369  53.4425974  55.1713281
  24.7031779  53.3232722  54.4676621  23.9474212  54.3906818  55.2301233
  20.8743075  53.3953402  55.1074806  20.5361587  53.2794467  54.2195340
  21.7432844  52.9944567  55.0875812  16.7329891  55.2488879  51.0971697
  16.1694756  55.1578816  50.3287984  16.6182286  54.4288783  51.5774189
  21.3562858  54.5488254  61.0661011  21.3451499  54.1541052  60.1941515
  21.5183498  53.8154327  61.6594783  14.2794323  56.7440070  53.9355917
  15.0715615  56.4030895  53.5202216  14.5190973  56.8535045  54.8558070
  22.3129450  58.9159846  46.4086161  21.6617430  59.5013927  46.0220175
  23.1073813  59.4466041  46.4681199  16.2385077  56.0048984  46.8073296
  17.0115953  55.4577971  46.6686172  16.5910476  56.8693233  47.0187757
  18.0770120  57.3325366  60.0140195  17.7859986  58.2370997  59.8986861
  18.7127104  57.3741893  60.7284265  19.0026326  54.7102214  56.6041555
  19.5989899  54.4858237  55.8898518  19.0601298  53.9686960  57.2067003
  18.5751355  52.1641650  44.4391746  18.8276876  51.6423171  43.6775209
  17.6375914  52.0007795  44.5418429  23.6194638  51.1677428  52.2466489
  24.4057727  50.7496851  51.8956906  23.8833342  52.0723520  52.4148137
  23.7904715  56.6050278  46.9455146  23.1550548  56.6784905  47.6576050
  23.4602121  57.1943877  46.2674225  29.0203065  51.1052661  53.1499467
  29.7528237  50.5351878  53.3837297  28.2642420  50.7174262  53.5905973
  18.2947644  54.0669756  46.6416121  18.1783902  53.3914659  47.3097205
  18.4049903  53.5802130  45.8248274  20.6379185  53.5279903  50.3462810
  20.2737392  53.0010524  51.0575731  21.4946300  53.1378372  50.1729295
  26.5428485  44.8174235  57.6094076  26.2111810  45.6869646  57.3855291
  25.9474099  44.5010519  58.2888106  20.2784671  48.5569802  45.3424158
  20.4459074  49.4250039  45.7094629  20.0881841  48.7197084  44.4185448
  23.0360005  57.0186781  57.0089989  22.7360728  57.9211820  56.9005796
  22.6911064  56.7518965  57.8611142  16.4872486  53.4700578  53.0426693
  15.5622983  53.3376792  53.2504385  16.7356899  54.2494797  53.5396636
  26.4357148  49.5369321  54.6887426  25.5274026  49.4684730  54.3946187
  26.3844744  50.0141266  55.5169252  20.2573892  51.0127460  46.3270825
  20.1373518  51.4584511  47.1656306  19.5626481  51.3612778  45.7684363
  13.8481297  53.1133852  53.8770482  13.9773678  53.3668331  54.7909894
  13.1678749  53.7061560  53.5575137  18.0180784  63.7831102  49.9760956
  17.9404814  64.7338927  50.0549437  17.4142428  63.4376974  50.6335883
  20.5098014  50.9558967  62.6322323  19.7331348  51.5152887  62.6225188
  21.1488577  51.4415750  63.1537194  25.9558959  51.4848933  47.1551159
  26.8676815  51.7176320  46.9798857  25.4468606  52.0685977  46.5926238
  18.7644387  53.7644420  62.1940290  19.5059071  54.3029464  61.9175114
  18.0581372  54.3910709  62.3511842  24.2399726  55.9073561  60.7912452
  24.6483082  55.4655971  60.0467084  23.5176988  55.3326188  61.0446645
  20.5930796  50.8446168  58.1646009  21.4391991  51.2685581  58.3080658
  20.5329434  50.1879792  58.8584572  24.5628541  56.4674752  54.5464741
  23.9337403  56.6320466  53.8440809  24.1754203  56.8816361  55.3175705
  28.4417773  57.4029189  51.9009105  27.7568811  57.7828091  51.3506138
  28.5261622  58.0124516  52.6341052  23.7430242  48.5050536  59.8227182
  23.4991173  49.2592597  59.2861458  24.0190172  48.8835884  60.6574430
  25.6968704  55.0489148  58.5004448  25.9085600  55.6920908  57.8238829
  25.6498453  54.2151465  58.0326378  23.2994933  47.6606969  55.4041020
  22.4379412  47.9588223  55.6957758  23.3257368  47.8777368  54.4722053
  20.1156503  56.2049160  51.8114826  20.5794848  56.4836863  51.0219448
  19.8513301  55.3032604  51.6287917  17.0080584  55.7520641  54.7494589
  17.5781941  56.1807910  54.1112074  17.5988696  55.4703226  55.4478775
  19.0525389  52.3272312  48.6204391  19.7549432  52.7793356  49.0878317
  18.7206017  51.6856131  49.2484284  17.5005750  50.9184069  62.9955600
  16.8704411  51.6000349  63.2290997  17.3941838  50.8067150  62.0508739
  12.7950723  50.5855865  53.9221525  12.0049777  50.8413393  53.4461635
  13.2861970  51.4004203  54.0273565  26.8114532  57.9261104  56.6726805
  27.6331976  57.5241291  56.3909487  26.8076935  57.8229338  57.6242921
  14.7465468  50.9500444  50.8805001  13.9496631  51.0619138  51.3988497
  14.5191060  51.2887096  50.0145892  20.5771136  57.4745147  58.8287516
  20.6415568  57.9365554  59.6645688  19.8682060  56.8442512  58.9569826
  11.0788426  50.8386355  56.3536515  11.3296464  51.7233365  56.6194091
  11.6147974  50.6590957  55.5811607  20.2919153  59.1413255  48.6966496
  20.1564828  59.9864790  49.1251344  20.8328966  59.3432532  47.9332430
  16.7786493  45.2204834  65.3580851  16.3853439  44.6671033  66.0328496
  17.5952633  45.5315413  65.7487369  13.7448551  56.6588693  49.2694421
  14.2573071  57.4531943  49.4199986  14.3971264  55.9614983  49.2028023
  15.5543435  59.7754449  51.3517174  15.7310064  60.6972414  51.1638158
  16.3500269  59.4612868  51.7811554  19.6954454  46.6362714  62.9501108
  20.4364167  47.2369867  62.8705570  19.9272377  45.8940351  62.3919151
  14.8395792  51.8219081  61.2279338  14.7249307  50.9204338  61.5286437
  13.9840310  52.0682778  60.8764154  21.9187630  59.7636821  62.8266838
  21.4751484  58.9773200  62.5087743  22.5804843  59.9515972  62.1610729
  16.6774751  61.2932623  57.3527517  17.2282176  61.1649686  56.5804511
  15.8386227  61.5927512  57.0022410  24.0168868  60.0439621  60.8548240
  23.9987343  60.8648502  60.3628509  24.9388788  59.9193696  61.0798381
  20.4741922  57.5583751  61.6971748  21.0070259  56.7972039  61.4671056
  19.9456003  57.2657402  62.4395902  23.6411617  42.6643816  57.2265390
  23.2975886  43.5545458  57.1504500  24.0090580  42.4745474  56.3634975
  11.7097468  54.9877347  50.0453992  12.5472690  55.3974355  49.8287700
  11.8875735  54.0476789  50.0154186  23.6061900  52.6552428  45.7337825
  23.0908523  53.4257032  45.9726212  23.3339208  51.9817564  46.3570886
  21.1909011  47.5002128  50.7923063  20.3350607  47.1108979  50.6128702
  21.6035962  47.5794089  49.9322849  22.7208157  45.0348472  55.1914623
  22.2172953  44.9978607  54.3782428  23.0138764  45.9441214  55.2511280
  18.9651043  45.1187201  54.1980805  19.8304040  44.9230010  53.8386694
  19.0328552  44.8897553  55.1250161  28.5796174  55.4084782  47.6690998
  27.8025617  55.0695942  47.2246160  29.2587655  55.4137405  46.9945963
  23.3948203  50.5279520  47.5597606  23.0898338  50.8425669  48.4107749
  24.3478645  50.6060940  47.6024939  21.8394635  56.6869743  49.2090560
  21.3115996  55.9522503  48.8963797  21.3382137  57.4644419  48.9630528
  26.8187481  54.8818763  54.3257606  26.1611155  55.5718025  54.4137735
  27.6227880  55.2715195  54.6691593  16.5713362  47.3489409  51.5697171
  17.1457114  47.1264591  50.8370364  17.1584345  47.4178104  52.3225773
  25.6292940  53.2363136  52.3761548  26.1424821  53.8693128  52.8783258
  26.2794163  52.6364332  52.0104908  16.8982949  49.3793870  45.5893057
  16.0620262  49.7168557  45.9102331  16.7587719  49.2442850  44.6520194
  18.8736030  44.2230658  50.2972241  18.2200442  43.9079675  49.6728856
  18.8316504  43.6006399  51.0232064  19.9847235  54.5049953  42.2125533
  19.0774297  54.2739207  42.4116682  20.4818267  53.7087573  42.3999515
  22.8915314  63.2147460  45.1322219  22.2177013  63.5179157  45.7407177
  23.2781136  64.0176541  44.7827676  22.1073770  50.7112592  54.6219889
  21.1896332  50.9327539  54.4641577  22.5233914  50.7858902  53.7631596
  22.8908818  52.1104007  49.7522569  23.6380637  52.6225405  49.4429691
  23.1600408  51.7888060  50.6126962  21.1635468  54.6062548  46.7349523
  20.2546688  54.3221581  46.8321993  21.1930552  55.0261627  45.8752830
  26.3954736  58.2169138  50.5040691  25.9417063  57.3760048  50.5605881
  25.7648702  58.8530536  50.8415471  25.3387655  49.1461124  51.7341358
  24.6010412  48.6338510  52.0651601  25.5914429  48.7061505  50.9224635
  24.8387675  60.0545634  51.4390509  25.1310649  60.6150691  50.7202874
  25.3486296  60.3474195  52.1943668  25.4399283  41.9237376  52.3283127
  25.7458159  41.0634739  52.0409042  26.1651887  42.5154996  52.1282121
  11.7323639  52.3268062  50.7164725  11.5348039  51.7337423  49.9915792
  11.1770303  52.0220272  51.4340664  19.7120362  52.2191169  52.8359318
  19.7668972  51.2665005  52.7601795  18.9011564  52.3750608  53.3200617
  20.8611556  56.1471292  44.0737602  20.4230986  55.4307151  43.6143239
  21.6021997  56.3747407  43.5122693  17.6512722  50.8368228  50.5949697
  16.8380588  51.1362399  51.0014889  18.1471716  50.4423917  51.3124180
  19.8021300  60.8325985  52.5283962  19.7597479  61.0586832  51.5992494
  20.7183999  60.5989360  52.6769763  23.2486934  51.3010053  59.4264591
  23.6036322  51.5281526  60.2859057  23.8959065  51.6328430  58.8041846
  28.9784671  54.4228489  50.1313920  28.8402569  54.6130085  49.2035109
  28.6220890  55.1847872  50.5881971  17.1426797  48.4086584  56.2110932
  17.7826176  48.2675343  55.5133896  16.3104328  48.1221097  55.8349534
  29.0054051  56.4905016  55.1425192  29.4390557  56.3980305  55.9908246
  29.7185631  56.4662516  54.5045208  17.9187101  57.7089014  52.3245925
  18.7127699  57.2139335  52.1228500  17.2078793  57.1806878  51.9613630
  22.7381945  60.0907110  56.6758292  22.7918968  60.6598046  57.4436008
  21.8696727  60.2608995  56.3112329  14.2269864  51.8532096  48.4005677
  13.2967453  51.7916552  48.6175640  14.3227336  51.3308049  47.6042319
  14.1455413  48.3786909  50.9883919  14.4062231  49.2932242  50.8793080
  14.9672586  47.9111352  51.1380532  15.6180339  49.7924666  58.1582744
  16.2903392  49.5842028  57.5095393  14.7910125  49.5946752  57.7187976
  21.5205911  46.4186607  60.1748404  20.8733826  47.1176557  60.0812881
  22.2906926  46.8522751  60.5424653  24.9284709  56.6835459  63.2498958
  24.7770215  56.4546011  62.3329041  24.9189388  57.6406061  63.2630303
  21.6970045  54.2567372  58.2345224  22.6262105  54.4078532  58.0614192
  21.2761075  54.3451393  57.3793871  20.4958377  58.2818036  56.0043762
  20.3569463  57.9136821  56.8769700  19.7072973  58.7965676  55.8327720
  21.0906529  63.3827133  47.3469298  21.2658285  62.9115176  48.1614921
  20.4039317  64.0092899  47.5750559  22.0463592  57.6599639  53.3932600
  21.7113425  57.6200409  54.2890249  21.5467538  56.9944355  52.9203010
  16.0207836  53.0667269  58.9185181  15.8827634  52.3347508  59.5196720
  16.9312760  52.9776169  58.6369369  24.9822784  55.0055673  43.6669659
  24.3651954  54.2802502  43.5702712  24.5139272  55.7665034  43.3236734
  18.6490137  52.7787228  58.4068860  19.3589755  52.1380421  58.3655479
  18.6059445  53.0300123  59.3295041  26.6376915  59.7154582  61.3275440
  26.5789462  59.0313802  60.6606023  27.0396434  60.4573572  60.8756066
  17.3619071  49.7652446  60.2264500  16.8256428  49.3143185  60.8786096
  16.7735779  49.8998355  59.4834964  15.6567614  66.5316496  54.1209159
  15.8964212  67.1635020  54.7988177  14.8136811  66.1804536  54.4074518
  16.7721330  49.2241098  42.7890964  15.8950796  49.1029899  42.4253210
  17.2479083  48.4327176  42.5369852  26.6394323  57.6794166  59.5589419
  25.7521101  57.3420088  59.6815818  27.2092874  56.9477197  59.7958185
   8.2923470  54.0118257  52.8832471   8.9794510  53.6979988  52.2953486
   8.1371598  54.9159622  52.6099722  13.0958192  48.9008454  57.3117494
  13.0116381  48.2934124  56.5767904  12.2740898  49.3917472  57.3126991
  20.1695476  62.3395618  56.5250663  20.0965648  63.1450590  57.0369967
  19.7272869  62.5387584  55.6998684  19.9585256  61.5767388  50.0353484
  19.1752778  62.1189068  50.1291709  20.6578001  62.0941368  50.4347725
  23.2681906  47.3862018  52.6787689  23.7650605  46.6331980  52.3588760
  22.4968887  47.4226334  52.1130899  22.6294160  62.2382452  58.6808821
  23.3422132  62.8729917  58.6084723  22.1384188  62.3346318  57.8648823
  24.3511686  56.1433705  50.2526113  23.4167965  56.2635167  50.0830817
  24.5288355  55.2406172  49.9886123  19.8516875  49.5279401  52.4059374
  19.4814662  48.9750441  53.0940280  20.3475967  48.9237534  51.8534374
  27.7384238  51.9851024  50.7876147  28.2044690  52.8179016  50.7136450
  28.1891738  51.5196006  51.4921405  17.6806073  59.9876896  59.5014392
  18.3815533  60.6213379  59.6543786  17.2101188  60.3291627  58.7410031
  25.8060469  58.3294845  47.7862299  26.0820313  58.2151440  48.6956173
  24.9364968  57.9312330  47.7474472  25.7100901  44.3531611  54.8267048
  24.7963980  44.5835838  54.9949255  26.1394002  44.4370055  55.6781081
  25.4807359  52.5421503  57.3266942  24.8278809  52.7897410  56.6719395
  25.8587739  51.7285641  56.9929420  22.4414533  62.5781196  51.4295113
  22.6236927  61.7602852  51.8922865  23.2647519  62.7948888  50.9920003
  22.7756698  61.5049381  48.6910161  23.3044465  60.9941836  48.0780323
  23.0384918  61.1891912  49.5555694  21.5294932  53.2841314  63.8132979
  20.8535569  53.1835443  64.4835355  22.3522566  53.1280528  64.2768977
  13.2773791  59.5213251  56.4345495  13.8627228  58.7756939  56.5673399
  13.0798630  59.8317207  57.3182159  16.1312446  62.5564498  51.4507937
  15.4622822  63.0410626  50.9671977  15.9925316  62.8033718  52.3651316
   7.8691446  52.0918851  55.1549938   7.9075545  51.5582442  55.9487056
   7.3631739  51.5654056  54.5360915  20.2717715  64.5908242  58.0490595
  20.8236023  64.7539863  58.8139681  20.6123908  65.1812679  57.3770620
  15.2482208  46.9383391  58.6512480  15.3123535  47.7998222  58.2389878
  15.1849328  46.3257393  57.9184839  14.7234481  49.0106524  62.2985514
  15.3506520  48.6283601  62.9123039  13.8662400  48.7920726  62.6641207
  25.1228589  59.4169499  63.9039250  25.6668493  60.0299457  63.4094205
  24.5415434  59.9749077  64.4206263  11.5000023  50.8182953  48.2303869
  11.7953465  49.9093631  48.1770923  10.5988059  50.7970692  47.9084872
  23.4086102  62.5390217  55.0354278  23.2837242  61.7379957  54.5265223
  24.0665193  63.0336410  54.5468248  15.0294270  48.8938950  54.2131418
  14.3080856  49.5074917  54.0738891  15.8187526  49.4296714  54.1348064
  25.4721011  60.3399237  56.6633828  24.5251346  60.2204588  56.5912154
  25.8203784  59.4521735  56.7460089  17.8320584  46.2293376  60.4872070
  18.3554986  46.4755673  61.2498379  17.6132917  47.0613411  60.0675207
  13.2287865  48.4997051  48.3543194  12.9000571  47.6194430  48.1718300
  13.5827236  48.4444719  49.2419584  22.4767444  60.1351953  52.8638180
  22.3292406  59.2068661  53.0445750  23.3020937  60.1572044  52.3795255
  16.3429688  48.7870020  48.7218672  16.6825761  49.3155942  47.9997280
  16.7901809  49.1250427  49.4977239  26.0801566  60.9580512  53.9503053
  27.0048113  60.7523373  53.8127504  25.9116869  60.7096913  54.8592394
  19.0373129  47.1707071  58.1721740  18.6969949  46.3714884  58.5742420
  18.3312135  47.4708782  57.5998573  19.6889601  44.2556384  56.6249063
  20.5115670  43.7816862  56.5027953  19.9327664  45.0346867  57.1247749
  18.3297835  47.2844642  46.9211965  19.0506198  47.6625895  46.4175682
  17.7063139  48.0033519  47.0246943  22.4728958  47.9889791  47.8570297
  22.6892573  48.8714429  47.5559125  21.9923025  47.5976004  47.1275939
  17.2128180  50.9475504  54.4341042  17.0672760  51.2615807  55.3265323
  16.7353383  51.5660405  53.8811940  19.0724563  47.9378052  54.4821931
  19.0586131  47.0419146  54.1454229  19.7896991  47.9448716  55.1160217
  20.9250693  48.3715392  56.5275059  20.6668471  49.2932463  56.5259389
  20.3935734  47.9745827  57.2175523  25.8696882  61.4766180  49.3065144
  26.0433760  60.9112602  48.5538997  26.3625773  62.2767074  49.1244634
  11.6873842  53.4880849  57.3728703  11.1427310  54.2640657  57.5048977
  12.5653192  53.8351653  57.2147824  18.4761458  46.8192433  49.7509501
  18.5977370  45.8909079  49.9500389  18.1863501  46.8331118  48.8387817
  21.3452649  44.5047343  52.8876221  21.3674346  44.5686676  51.9328201
  21.7620708  43.6651852  53.0816727  31.7236273  54.2402602  50.9255444
  32.1667419  53.4909928  50.5274567  30.8462783  54.2312739  50.5429176
  26.8572054  60.7932944  46.4062042  27.5522959  61.4139637  46.6249357
  27.1995205  59.9428295  46.6814420  12.4739864  52.6150745  60.2658860
  11.7321600  52.7633380  60.8523490  12.1532608  52.8759011  59.4025609
  28.7563478  58.2432649  47.9349373  29.2814802  58.5819922  47.2098693
  28.6685830  57.3079665  47.7512508  20.4183526  62.1566723  60.0639250
  20.7270653  61.9115870  60.9361949  21.2159008  62.3613362  59.5758120
  20.4404138  64.3104633  52.2944626  20.0009129  63.8181011  52.9877483
  21.1912255  63.7677600  52.0536702  12.9196477  60.5016174  52.2969254
  13.7454497  60.2019945  51.9167898  12.5690529  59.7323796  52.7459043
  17.8878011  59.8542642  54.3666928  17.2658020  59.1913347  54.0669156
  18.5582877  59.8803774  53.6840576  11.1205082  58.4202500  53.2558188
  10.2836991  57.9924674  53.0742189  11.0928728  58.6134943  54.1928979
  17.9602538  48.3324430  63.9599434  18.0090693  49.2086553  63.5777204
  18.5025052  47.7901823  63.3871077  28.4457384  58.8765553  63.2400571
  27.6552927  58.8589692  62.7005071  28.2090738  59.4153847  63.9949608
  17.4491517  58.4046565  47.8425389  17.5979638  59.0882030  47.1892061
  18.2557961  58.3851655  48.3574844  25.8559021  51.7088948  61.8692606
  26.7568884  51.5695412  61.5776604  25.9306996  51.8743402  62.8090784
  20.1901826  49.0855802  60.7145793  19.3205136  49.3789368  60.4428381
  20.4261307  49.6696247  61.4353056  15.2044150  54.4311743  48.8486457
  14.9590192  53.5274073  49.0466668  15.3740065  54.4328893  47.9065935
  22.8940860  45.3035419  58.2311213  23.4122804  46.0396446  57.9057702
  22.5395993  45.6099412  59.0657972  14.4739798  50.1640100  46.3472619
  13.7809043  50.2384455  45.6912655  14.2291550  49.4000444  46.8694136
  23.1453454  41.7235702  53.7512110  23.4255208  41.0558891  54.3772536
  23.9304061  41.9164797  53.2386773  20.9486923  60.8994696  45.3137136
  20.3760890  61.5184883  44.8607608  21.5219717  61.4494057  45.8477058
  27.0162313  50.1453336  57.4983685  27.9679736  50.2451433  57.5195909
  26.8465763  49.3531604  58.0081769  25.0376692  47.2308919  57.6843086
  24.4426624  47.5113932  56.9889574  24.7526389  47.7202820  58.4559827
  24.1684183  61.1831846  46.4445718  25.1014856  61.1177407  46.6478594
  24.0807396  62.0188113  45.9860251  26.7972199  60.4997716  43.4049666
  26.7185831  60.1657580  44.2985424  27.6181866  60.9919484  43.4041138
  29.4950391  53.3659455  56.6125984  29.4626711  52.4275456  56.7985668
  30.1051014  53.4443492  55.8791809  21.3333721  52.2355508  42.6553188
  22.2792826  52.1061716  42.7241606  20.9547966  51.4970170  43.1322617
  27.3055606  43.9011514  52.6180080  27.1080427  43.5926603  53.5023412
  27.9155312  44.6273153  52.7478010  21.2172414  56.2873255  64.1153845
  22.1375423  56.4651854  64.3093892  21.1821997  55.3429300  63.9633545
  19.5176639  50.1605485  42.5908074  18.6108094  49.8638597  42.6670787
  19.7952620  49.8635303  41.7242360  10.4354579  51.4811848  53.0407120
  10.1157363  50.6277156  52.7481494   9.8888007  51.6960426  53.7965087
  14.2134487  54.1974289  56.7576627  14.4320496  55.1291397  56.7764660
  14.6260260  53.8382264  57.5431430  21.1338704  44.7042374  48.7452315
  20.3239433  44.3589459  49.1207561  21.8223121  44.3949918  49.3339927
  23.0629253  43.7820421  50.3676612  23.6160291  44.2015875  51.0266635
  23.2999339  42.8556169  50.4099568  19.0862352  49.7707495  66.1479376
  18.9859079  50.7201852  66.0791467  18.8683894  49.4425734  65.2755446
  18.2875423  47.0192420  42.7320053  19.1494587  47.3447318  42.9915870
  18.4725767  46.2323916  42.2193119  10.3042839  55.1014760  55.0100242
   9.6106310  54.6868712  54.4970196  11.0515830  55.1435296  54.4133661
  26.4408060  45.8920946  49.8755276  25.8606729  46.5505750  49.4933328
  26.1743992  45.0698291  49.4642693  24.8911626  45.2926004  52.0776596
  25.3911404  45.4042539  51.2690915  25.5347234  44.9887057  52.7177405
  18.9493622  53.2004634  64.9644437  18.4660704  54.0004994  65.1708326
  19.0354561  53.2112579  64.0111881  12.2179581  55.0333013  52.8866257
  12.1950270  55.1320701  51.9348140  12.5280218  55.8798164  53.2083423
  14.8766959  57.0909168  57.0012871  15.8310213  57.0593111  56.9342803
  14.6779483  56.6299792  57.8163097  15.4666341  55.6610285  59.5683669
  16.2859230  56.1554363  59.5918506  15.7403149  54.7442253  59.5401236
  25.2232938  48.0521037  48.9311624  24.3358793  48.3370687  48.7131819
  25.6386927  47.8914800  48.0838901  28.5747474  48.0767558  52.6465963
  29.3507864  48.5664010  52.9190580  27.8495608  48.5025612  53.1037833
  13.2317188  62.6328788  54.0183069  13.0971656  61.8729189  53.4521067
  12.8149250  63.3569688  53.5511858  24.3676151  57.8165712  43.0259644
  25.0712001  58.0215714  43.6417300  23.6438800  58.3842473  43.2908728
  25.1973961  53.5675573  49.1461914  25.1409163  54.0244124  48.3069547
  25.7502304  52.8066257  48.9684757  29.0078767  49.3565305  49.9712034
  28.7515702  48.9561940  50.8020241  28.3831635  50.0709099  49.8462173
  16.3886314  63.5298105  54.2301511  16.2718698  64.4743537  54.1280202
  15.5678760  63.2271667  54.6187311  26.2762849  58.2548241  45.0758104
  27.1108453  57.8229439  44.8935579  26.1147191  58.0830254  46.0034999
  25.9308741  54.7580354  46.4414443  25.8757545  54.5924625  45.5002888
  25.3054796  55.4656387  46.5976633  10.7201256  49.9948418  60.2675866
  11.3660119  49.4847372  60.7563091  10.5118407  50.7317100  60.8419291
  23.2454648  57.0629266  65.7668006  24.1145808  57.2369918  65.4054641
  22.7661399  57.8823683  65.6443736  19.2404866  44.2588463  46.0199762
  19.2283536  45.2030303  46.1768033  20.1328288  44.0758608  45.7259223
  17.4140828  64.1826367  57.4457440  18.3168075  64.2149977  57.7623935
  17.1878198  63.2526818  57.4603776  19.1694430  62.9357353  54.1067519
  18.2190061  62.9359215  53.9931891  19.4726916  62.1890088  53.5903553
  23.0556986  40.8531240  50.2745699  22.2889381  40.2989726  50.4202381
  23.4667691  40.9253108  51.1359850  15.0598747  47.1416035  64.3650880
  15.9230208  46.7852840  64.5754204  14.4864157  46.8029930  65.0526284
  31.7136830  68.7245320  55.1074806  31.3755341  68.6086385  54.2195340
  32.5826598  68.3236485  55.0875812  27.5723646  70.5780796  51.0971697
  27.0088511  70.4870733  50.3287984  27.4576041  69.7580701  51.5774189
  32.1956613  69.8780172  61.0661011  32.1845254  69.4832970  60.1941515
  32.3577252  69.1446244  61.6594783  25.1188078  72.0731988  53.9355917
  25.9109369  71.7322813  53.5202216  25.3584728  72.1826963  54.8558070
  33.1523204  74.2451764  46.4086161  32.5011184  74.8305844  46.0220175
  33.9467567  74.7757959  46.4681199  27.0778832  71.3340901  46.8073296
  27.8509708  70.7869888  46.6686172  27.4304230  72.1985151  47.0187757
  28.9163874  72.6617283  60.0140195  28.6253740  73.5662914  59.8986861
  29.5520858  72.7033811  60.7284265  29.8420081  70.0394132  56.6041555
  30.4383653  69.8150154  55.8898518  29.8995052  69.2978877  57.2067003
  29.4145109  67.4933567  44.4391746  29.6670630  66.9715089  43.6775209
  28.4769668  67.3299713  44.5418429  34.4588392  66.4969346  52.2466489
  35.2451481  66.0788769  51.8956906  34.7227096  67.4015438  52.4148137
  34.6298470  71.9342196  46.9455146  33.9944302  72.0076823  47.6576050
  34.2995876  72.5235795  46.2674225  29.1341398  69.3961673  46.6416121
  29.0177656  68.7206577  47.3097205  29.2443658  68.9094047  45.8248274
  31.4772939  68.8571820  50.3462810  31.1131146  68.3302441  51.0575731
  32.3340055  68.4670289  50.1729295  31.1178426  63.8861720  45.3424158
  31.2852828  64.7541956  45.7094629  30.9275595  64.0489002  44.4185448
  33.8753759  72.3478699  57.0089989  33.5754482  73.2503738  56.9005796
  33.5304819  72.0810882  57.8611142  27.3266241  68.7992496  53.0426693
  26.4016737  68.6668710  53.2504385  27.5750654  69.5786715  53.5396636
  31.0967647  66.3419378  46.3270825  30.9767272  66.7876428  47.1656306
  30.4020235  66.6904695  45.7684363  24.6875052  68.4425769  53.8770482
  24.8167433  68.6960248  54.7909894  24.0072503  69.0353477  53.5575137
  28.8574539  79.1123019  49.9760956  28.7798569  80.0630844  50.0549437
  28.2536183  78.7668892  50.6335883  36.7952713  66.8140851  47.1551159
  37.7070569  67.0468238  46.9798857  36.2862360  67.3977895  46.5926238
  29.6038141  69.0936338  62.1940290  30.3452825  69.6321382  61.9175114
  28.8975127  69.7202627  62.3511842  31.4324551  66.1738085  58.1646009
  32.2785746  66.5977499  58.3080658  31.3723188  65.5171710  58.8584572
  30.9550257  71.5341077  51.8114826  31.4188603  71.8128780  51.0219448
  30.6907055  70.6324522  51.6287917  27.8474338  71.0812559  54.7494589
  28.4175695  71.5099827  54.1112074  28.4382450  70.7995144  55.4478775
  29.8919143  67.6564230  48.6204391  30.5943187  68.1085273  49.0878317
  29.5599772  67.0148049  49.2484284  28.3399505  66.2475986  62.9955600
  27.7098165  66.9292267  63.2290997  28.2335593  66.1359068  62.0508739
  23.6344477  65.9147782  53.9221525  22.8443531  66.1705311  53.4461635
  24.1255725  66.7296120  54.0273565  37.6508287  73.2553022  56.6726805
  38.4725731  72.8533209  56.3909487  37.6470690  73.1521256  57.6242921
  25.5859223  66.2792362  50.8805001  24.7890386  66.3911056  51.3988497
  25.3584815  66.6179014  50.0145892  31.4164890  72.8037065  58.8287516
  31.4809323  73.2657472  59.6645688  30.7075814  72.1734430  58.9569826
  21.9182180  66.1678273  56.3536515  22.1690219  67.0525283  56.6194091
  22.4541729  65.9882874  55.5811607  31.1312908  74.4705172  48.6966496
  30.9958583  75.3156708  49.1251344  31.6722720  74.6724450  47.9332430
  27.6180248  60.5496752  65.3580851  27.2247193  59.9962951  66.0328496
  28.4346388  60.8607331  65.7487369  24.5842305  71.9880610  49.2694421
  25.0966826  72.7823861  49.4199986  25.2365018  71.2906901  49.2028023
  26.3937190  75.1046367  51.3517174  26.5703818  76.0264331  51.1638158
  27.1894023  74.7904786  51.7811554  25.6789547  67.1510998  61.2279338
  25.5643062  66.2496256  61.5286437  24.8234064  67.3974695  60.8764154
  32.7581384  75.0928739  62.8266838  32.3145238  74.3065117  62.5087743
  33.4198598  75.2807889  62.1610729  27.5168505  76.6224540  57.3527517
  28.0675931  76.4941604  56.5804511  26.6779981  76.9219429  57.0022410
  34.8562622  75.3731539  60.8548240  34.8381098  76.1940420  60.3628509
  35.7782542  75.2485614  61.0798381  31.3135676  72.8875668  61.6971748
  31.8464013  72.1263956  61.4671056  30.7849758  72.5949320  62.4395902
  22.5491222  70.3169265  50.0453992  23.3866444  70.7266273  49.8287700
  22.7269490  69.3768707  50.0154186  34.4455654  67.9844345  45.7337825
  33.9302278  68.7548950  45.9726212  34.1732963  67.3109481  46.3570886
  32.0302765  62.8294046  50.7923063  31.1744362  62.4400896  50.6128702
  32.4429717  62.9086007  49.9322849  33.5601912  60.3640389  55.1914623
  33.0566707  60.3270524  54.3782428  33.8532519  61.2733132  55.2511280
  29.8044798  60.4479119  54.1980805  30.6697794  60.2521928  53.8386694
  29.8722307  60.2189471  55.1250161  39.4189928  70.7376700  47.6690998
  38.6419371  70.3987859  47.2246160  40.0981409  70.7429323  46.9945963
  34.2341957  65.8571437  47.5597606  33.9292093  66.1717587  48.4107749
  35.1872399  65.9352857  47.6024939  32.6788389  72.0161661  49.2090560
  32.1509751  71.2814420  48.8963797  32.1775892  72.7936337  48.9630528
  27.4107117  62.6781327  51.5697171  27.9850869  62.4556508  50.8370364
  27.9978099  62.7470021  52.3225773  27.7376704  64.7085788  45.5893057
  26.9014016  65.0460475  45.9102331  27.5981474  64.5734768  44.6520194
  29.7129785  59.5522576  50.2972241  29.0594197  59.2371593  49.6728856
  29.6710259  58.9298316  51.0232064  30.8240989  69.8341871  42.2125533
  29.9168051  69.6031124  42.4116682  31.3212021  69.0379490  42.3999515
  33.7309068  78.5439378  45.1322219  33.0570767  78.8471075  45.7407177
  34.1174890  79.3468458  44.7827676  33.7302573  67.4395925  49.7522569
  34.4774392  67.9517322  49.4429691  33.9994162  67.1179978  50.6126962
  32.0029223  69.9354466  46.7349523  31.0940442  69.6513499  46.8321993
  32.0324307  70.3553544  45.8752830  37.2348490  73.5461055  50.5040691
  36.7810817  72.7051965  50.5605881  36.6042457  74.1822454  50.8415471
  35.6781429  75.3837552  51.4390509  35.9704404  75.9442609  50.7202874
  36.1880050  75.6766113  52.1943668  22.5717393  67.6559980  50.7164725
  22.3741793  67.0629341  49.9915792  22.0164057  67.3512190  51.4340664
  30.5514117  67.5483086  52.8359318  30.6062727  66.5956923  52.7601795
  29.7405319  67.7042526  53.3200617  31.7005311  71.4763209  44.0737602
  31.2624741  70.7599068  43.6143239  32.4415751  71.7039324  43.5122693
  28.4906477  66.1660146  50.5949697  27.6774342  66.4654317  51.0014889
  28.9865471  65.7715835  51.3124180  30.6415055  76.1617903  52.5283962
  30.5991233  76.3878749  51.5992494  31.5577754  75.9281278  52.6769763
  27.9820552  63.7378502  56.2110932  28.6219931  63.5967261  55.5133896
  27.1498082  63.4513015  55.8349534  28.7580855  73.0380932  52.3245925
  29.5521454  72.5431252  52.1228500  28.0472548  72.5098795  51.9613630
  33.5775700  75.4199028  56.6758292  33.6312722  75.9889964  57.4436008
  32.7090481  75.5900913  56.3112329  25.0663619  67.1824014  48.4005677
  24.1361207  67.1208469  48.6175640  25.1621091  66.6599967  47.6042319
  24.9849168  63.7078827  50.9883919  25.2455985  64.6224160  50.8793080
  25.8066340  63.2403269  51.1380532  26.4574093  65.1216584  58.1582744
  27.1297147  64.9133946  57.5095393  25.6303880  64.9238670  57.7187976
  32.5363800  69.5859290  58.2345224  33.4655860  69.7370449  58.0614192
  32.1154830  69.6743310  57.3793871  31.3352131  73.6109954  56.0043762
  31.1963217  73.2428738  56.8769700  30.5466728  74.1257594  55.8327720
  31.9300283  78.7119051  47.3469298  32.1052039  78.2407094  48.1614921
  31.2433071  79.3384817  47.5750559  32.8857347  72.9891557  53.3932600
  32.5507179  72.9492327  54.2890249  32.3861292  72.3236273  52.9203010
  26.8601591  68.3959187  58.9185181  26.7221388  67.6639426  59.5196720
  27.7706514  68.3068087  58.6369369  35.8216538  70.3347591  43.6669659
  35.2045709  69.6094419  43.5702712  35.3533027  71.0956951  43.3236734
  29.4883891  68.1079146  58.4068860  30.1983510  67.4672338  58.3655479
  29.4453199  68.3592041  59.3295041  28.2012825  65.0944364  60.2264500
  27.6650182  64.6435102  60.8786096  27.6129534  65.2290273  59.4834964
  26.4961369  81.8608413  54.1209159  26.7357967  82.4926937  54.7988177
  25.6530565  81.5096453  54.4074518  27.6115084  64.5533015  42.7890964
  26.7344550  64.4321816  42.4253210  28.0872837  63.7619094  42.5369852
  19.1317224  69.3410175  52.8832471  19.8188264  69.0271905  52.2953486
  18.9765353  70.2451540  52.6099722  23.9351946  64.2300372  57.3117494
  23.8510135  63.6226041  56.5767904  23.1134653  64.7209390  57.3126991
  31.0089231  77.6687536  56.5250663  30.9359402  78.4742507  57.0369967
  30.5666624  77.8679502  55.6998684  30.7979010  76.9059306  50.0353484
  30.0146532  77.4480986  50.1291709  31.4971755  77.4233285  50.4347725
  33.4687914  77.5674370  58.6808821  34.1815886  78.2021835  58.6084723
  32.9777943  77.6638236  57.8648823  35.1905441  71.4725622  50.2526113
  34.2561720  71.5927085  50.0830817  35.3682109  70.5698089  49.9886123
  30.6910629  64.8571318  52.4059374  30.3208417  64.3042359  53.0940280
  31.1869721  64.2529452  51.8534374  28.5199828  75.3168813  59.5014392
  29.2209287  75.9505296  59.6543786  28.0494943  75.6583545  58.7410031
  36.6454223  73.6586763  47.7862299  36.9214067  73.5443358  48.6956173
  35.7758722  73.2604248  47.7474472  33.2808287  77.9073114  51.4295113
  33.4630682  77.0894770  51.8922865  34.1041273  78.1240806  50.9920003
  33.6150453  76.8341299  48.6910161  34.1438219  76.3233754  48.0780323
  33.8778673  76.5183829  49.5555694  24.1167546  74.8505168  56.4345495
  24.7020982  74.1048856  56.5673399  23.9192384  75.1609125  57.3182159
  26.9706201  77.8856416  51.4507937  26.3016576  78.3702543  50.9671977
  26.8319071  78.1325636  52.3651316  18.7085200  67.4210769  55.1549938
  18.7469300  66.8874359  55.9487056  18.2025493  66.8945974  54.5360915
  31.1111469  79.9200159  58.0490595  31.6629778  80.0831781  58.8139681
  31.4517663  80.5104597  57.3770620  26.0875963  62.2675309  58.6512480
  26.1517289  63.1290140  58.2389878  26.0243083  61.6549311  57.9184839
  25.5628235  64.3398442  62.2985514  26.1900274  63.9575519  62.9123039
  24.7056154  64.1212643  62.6641207  35.9622344  74.7461417  63.9039250
  36.5062248  75.3591375  63.4094205  35.3809189  75.3040995  64.4206263
  22.3393778  66.1474871  48.2303869  22.6347219  65.2385549  48.1770923
  21.4381814  66.1262610  47.9084872  34.2479857  77.8682135  55.0354278
  34.1230996  77.0671875  54.5265223  34.9058948  78.3628328  54.5468248
  25.8688025  64.2230867  54.2131418  25.1474611  64.8366835  54.0738891
  26.6581281  64.7588632  54.1348064  36.3114765  75.6691155  56.6633828
  35.3645101  75.5496506  56.5912154  36.6597538  74.7813653  56.7460089
  28.6714339  61.5585294  60.4872070  29.1948740  61.8047590  61.2498379
  28.4526672  62.3905329  60.0675207  24.0681620  63.8288968  48.3543194
  23.7394326  62.9486347  48.1718300  24.4220990  63.7736637  49.2419584
  33.3161198  75.4643871  52.8638180  33.1686161  74.5360578  53.0445750
  34.1414692  75.4863962  52.3795255  27.1823443  64.1161938  48.7218672
  27.5219515  64.6447859  47.9997280  27.6295563  64.4542344  49.4977239
  36.9195320  76.2872430  53.9503053  37.8441868  76.0815291  53.8127504
  36.7510624  76.0388831  54.8592394  29.8766884  62.4998989  58.1721740
  29.5363704  61.7006802  58.5742420  29.1705890  62.8000700  57.5998573
  30.5283355  59.5848301  56.6249063  31.3509425  59.1108779  56.5027953
  30.7721419  60.3638785  57.1247749  29.1691590  62.6136560  46.9211965
  29.8899952  62.9917813  46.4175682  28.5456894  63.3325437  47.0246943
  33.3122713  63.3181709  47.8570297  33.5286327  64.2006347  47.5559125
  32.8316780  62.9267922  47.1275939  28.0521934  66.2767422  54.4341042
  27.9066515  66.5907725  55.3265323  27.5747138  66.8952322  53.8811940
  29.9118317  63.2669970  54.4821931  29.8979886  62.3711063  54.1454229
  30.6290745  63.2740634  55.1160217  31.7644448  63.7007310  56.5275059
  31.5062226  64.6224381  56.5259389  31.2329488  63.3037745  57.2175523
  36.7090636  76.8058097  49.3065144  36.8827514  76.2404520  48.5538997
  37.2019528  77.6058992  49.1244634  22.5267596  68.8172766  57.3728703
  21.9821064  69.5932574  57.5048977  23.4046946  69.1643571  57.2147824
  29.3155213  62.1484350  49.7509501  29.4371124  61.2200996  49.9500389
  29.0257255  62.1623036  48.8387817  32.1846403  59.8339261  52.8876221
  32.2068100  59.8978594  51.9328201  32.6014462  58.9943769  53.0816727
  37.6965809  76.1224862  46.4062042  38.3916714  76.7431554  46.6249357
  38.0388959  75.2720213  46.6814420  23.3133618  67.9442663  60.2658860
  22.5715354  68.0925298  60.8523490  22.9926362  68.2050928  59.4025609
  39.5957232  73.5724567  47.9349373  40.1208556  73.9111840  47.2098693
  39.5079585  72.6371582  47.7512508  31.2577281  77.4858641  60.0639250
  31.5664407  77.2407788  60.9361949  32.0552763  77.6905279  59.5758120
  31.2797893  79.6396550  52.2944626  30.8402883  79.1472929  52.9877483
  32.0306010  79.0969518  52.0536702  23.7590232  75.8308091  52.2969254
  24.5848252  75.5311863  51.9167898  23.4084284  75.0615714  52.7459043
  28.7271765  75.1834560  54.3666928  28.1051774  74.5205265  54.0669156
  29.3976632  75.2095691  53.6840576  21.9598837  73.7494418  53.2558188
  21.1230745  73.3216592  53.0742189  21.9322482  73.9426861  54.1928979
  28.7996292  63.6616348  63.9599434  28.8484448  64.5378470  63.5777204
  29.3418807  63.1193741  63.3871077  28.2885272  73.7338483  47.8425389
  28.4373392  74.4173947  47.1892061  29.0951715  73.7143573  48.3574844
  31.0295581  64.4147720  60.7145793  30.1598890  64.7081286  60.4428381
  31.2655061  64.9988165  61.4353056  26.0437905  69.7603661  48.8486457
  25.7983947  68.8565990  49.0466668  26.2133819  69.7620811  47.9065935
  25.3133552  65.4932018  46.3472619  24.6202797  65.5676373  45.6912655
  25.0685304  64.7292362  46.8694136  31.7880677  76.2286613  45.3137136
  31.2154645  76.8476800  44.8607608  32.3613471  76.7785975  45.8477058
  35.0077937  76.5123763  46.4445718  35.9408610  76.4469325  46.6478594
  34.9201150  77.3480030  45.9860251  37.6365954  75.8289634  43.4049666
  37.5579585  75.4949497  44.2985424  38.4575621  76.3211402  43.4041138
  32.1727476  67.5647426  42.6553188  33.1186581  67.4353634  42.7241606
  31.7941721  66.8262088  43.1322617  32.0566168  71.6165172  64.1153845
  32.9769178  71.7943771  64.3093892  32.0215751  70.6721218  63.9633545
  30.3570393  65.4897402  42.5908074  29.4501848  65.1930515  42.6670787
  30.6346374  65.1927221  41.7242360  21.2748333  66.8103766  53.0407120
  20.9551118  65.9569074  52.7481494  20.7281762  67.0252344  53.7965087
  25.0528241  69.5266207  56.7576627  25.2714251  70.4583315  56.7764660
  25.4654015  69.1674181  57.5431430  31.9732459  60.0334292  48.7452315
  31.1633187  59.6881377  49.1207561  32.6616876  59.7241836  49.3339927
  33.9023007  59.1112339  50.3676612  34.4554046  59.5307792  51.0266635
  34.1393093  58.1848087  50.4099568  29.9256106  65.0999413  66.1479376
  29.8252833  66.0493770  66.0791467  29.7077648  64.7717652  65.2755446
  29.1269178  62.3484338  42.7320053  29.9888342  62.6739236  42.9915870
  29.3119522  61.5615834  42.2193119  21.1436593  70.4306677  55.0100242
  20.4500065  70.0160630  54.4970196  21.8909584  70.4727214  54.4133661
  29.7887376  68.5296551  64.9644437  29.3054458  69.3296912  65.1708326
  29.8748315  68.5404496  64.0111881  23.0573336  70.3624931  52.8866257
  23.0344024  70.4612618  51.9348140  23.3673972  71.2090082  53.2083423
  25.7160714  72.4201086  57.0012871  26.6703967  72.3885028  56.9342803
  25.5173237  71.9591710  57.8163097  26.3060096  70.9902202  59.5683669
  27.1252985  71.4846281  59.5918506  26.5796904  70.0734170  59.5401236
  36.0626692  63.3812955  48.9311624  35.1752547  63.6662605  48.7131819
  36.4780681  63.2206718  48.0838901  24.0710943  77.9620706  54.0183069
  23.9365411  77.2021107  53.4521067  23.6543005  78.6861606  53.5511858
  35.2069906  73.1457629  43.0259644  35.9105756  73.3507632  43.6417300
  34.4832554  73.7134391  43.2908728  36.0367716  68.8967490  49.1461914
  35.9802917  69.3536042  48.3069547  36.5896058  68.1358175  48.9684757
  27.2280069  78.8590023  54.2301511  27.1112453  79.8035455  54.1280202
  26.4072515  78.5563584  54.6187311  37.1156603  73.5840158  45.0758104
  37.9502207  73.1521357  44.8935579  36.9540946  73.4122172  46.0034999
  36.7702495  70.0872272  46.4414443  36.7151299  69.9216543  45.5002888
  36.1448551  70.7948305  46.5976633  21.5595010  65.3240336  60.2675866
  22.2053874  64.8139290  60.7563091  21.3512161  66.0609018  60.8419291
  34.0848402  72.3921184  65.7668006  34.9539562  72.5661836  65.4054641
  33.6055154  73.2115600  65.6443736  30.0798621  59.5880381  46.0199762
  30.0677291  60.5322221  46.1768033  30.9722043  59.4050526  45.7259223
  28.2534583  79.5118285  57.4457440  29.1561829  79.5441895  57.7623935
  28.0271953  78.5818736  57.4603776  30.0088185  78.2649271  54.1067519
  29.0583816  78.2651133  53.9931891  30.3120671  77.5182006  53.5903553
  33.8950740  56.1823157  50.2745699  33.1283136  55.6281644  50.4202381
  34.3061445  56.2545026  51.1359850  25.8992501  62.4707953  64.3650880
  26.7623963  62.1144758  64.5754204  25.3257912  62.1321848  65.0526284
  45.7440878  84.1009810  55.1713281  46.3819288  83.9816557  54.4676621
  45.6261721  85.0490653  55.2301233  42.5530584  84.0537238  55.1074806
  42.2149096  83.9378302  54.2195340  43.4220353  83.6528403  55.0875812
  38.4117400  85.9072714  51.0971697  37.8482265  85.8162651  50.3287984
  38.2969795  85.0872618  51.5774189  43.0350367  85.2072089  61.0661011
  43.0239008  84.8124888  60.1941515  43.1971007  84.4738162  61.6594783
  35.9581832  87.4023906  53.9355917  36.7503124  87.0614730  53.5202216
  36.1978482  87.5118881  54.8558070  43.9916959  89.5743682  46.4086161
  43.3404939  90.1597762  46.0220175  44.7861322  90.1049877  46.4681199
  37.9172586  86.6632819  46.8073296  38.6903462  86.1161806  46.6686172
  38.2697985  87.5277068  47.0187757  39.7557629  87.9909201  60.0140195
  39.4647495  88.8954832  59.8986861  40.3914613  88.0325729  60.7284265
  40.6813835  85.3686050  56.6041555  41.2777408  85.1442072  55.8898518
  40.7388807  84.6270795  57.2067003  40.2538864  82.8225485  44.4391746
  40.5064385  82.3007006  43.6775209  39.3163423  82.6591630  44.5418429
  45.4692224  87.2634114  46.9455146  44.8338057  87.3368740  47.6576050
  45.1389630  87.8527712  46.2674225  39.9735153  84.7253591  46.6416121
  39.8571411  84.0498494  47.3097205  40.0837412  84.2385965  45.8248274
  42.3166693  84.1863738  50.3462810  41.9524901  83.6594359  51.0575731
  43.1733809  83.7962207  50.1729295  41.9572180  79.2153638  45.3424158
  42.1246583  80.0833874  45.7094629  41.7669350  79.3780919  44.4185448
  44.7147514  87.6770617  57.0089989  44.4148237  88.5795655  56.9005796
  44.3698573  87.4102800  57.8611142  38.1659995  84.1284413  53.0426693
  37.2410492  83.9960628  53.2504385  38.4144408  84.9078633  53.5396636
  41.9361401  81.6711295  46.3270825  41.8161027  82.1168346  47.1656306
  41.2413990  82.0196613  45.7684363  35.5268806  83.7717687  53.8770482
  35.6561187  84.0252166  54.7909894  34.8466257  84.3645395  53.5575137
  39.6968293  94.4414937  49.9760956  39.6192323  95.3922762  50.0549437
  39.0929937  94.0960809  50.6335883  42.1885523  81.6142802  62.6322323
  41.4118857  82.1736723  62.6225188  42.8276086  82.0999585  63.1537194
  47.6346468  82.1432768  47.1551159  48.5464324  82.3760155  46.9798857
  47.1256115  82.7269813  46.5926238  40.4431896  84.4228256  62.1940290
  41.1846580  84.9613300  61.9175114  39.7368881  85.0494545  62.3511842
  45.9187235  86.5657396  60.7912452  46.3270591  86.1239807  60.0467084
  45.1964497  85.9910024  61.0446645  42.2718305  81.5030003  58.1646009
  43.1179500  81.9269417  58.3080658  42.2116943  80.8463627  58.8584572
  46.2416050  87.1258587  54.5464741  45.6124912  87.2904301  53.8440809
  45.8541712  87.5400196  55.3175705  50.1205282  88.0613025  51.9009105
  49.4356320  88.4411926  51.3506138  50.2049131  88.6708351  52.6341052
  47.3756213  85.7072984  58.5004448  47.5873109  86.3504744  57.8238829
  47.3285962  84.8735300  58.0326378  41.7944012  86.8632995  51.8114826
  42.2582357  87.1420698  51.0219448  41.5300810  85.9616440  51.6287917
  38.6868093  86.4104477  54.7494589  39.2569450  86.8391745  54.1112074
  39.2776205  86.1287061  55.4478775  40.7312898  82.9856147  48.6204391
  41.4336941  83.4377191  49.0878317  40.3993526  82.3439966  49.2484284
  39.1793259  81.5767904  62.9955600  38.5491920  82.2584185  63.2290997
  39.0729347  81.4650986  62.0508739  34.4738232  81.2439700  53.9221525
  33.6837286  81.4997229  53.4461635  34.9649479  82.0588038  54.0273565
  48.4902041  88.5844939  56.6726805  49.3119485  88.1825126  56.3909487
  48.4864444  88.4813173  57.6242921  36.4252977  81.6084279  50.8805001
  35.6284140  81.7202973  51.3988497  36.1978569  81.9470931  50.0145892
  42.2558645  88.1328982  58.8287516  42.3203077  88.5949390  59.6645688
  41.5469569  87.5026347  58.9569826  32.7575935  81.4970190  56.3536515
  33.0083973  82.3817200  56.6194091  33.2935483  81.3174792  55.5811607
  56.5808034  84.9283688  53.0211777  55.8271743  84.3591086  52.8655781
  56.7155576  84.8946352  53.9682412  41.9706662  89.7997090  48.6966496
  41.8352337  90.6448626  49.1251344  42.5116475  90.0016368  47.9332430
  38.4574002  75.8788670  65.3580851  38.0640948  75.3254868  66.0328496
  39.2740142  76.1899248  65.7487369  35.4236060  87.3172528  49.2694421
  35.9360580  88.1115778  49.4199986  36.0758773  86.6198818  49.2028023
  37.2330944  90.4338284  51.3517174  37.4097573  91.3556249  51.1638158
  38.0287778  90.1196703  51.7811554  41.3741963  77.2946549  62.9501108
  42.1151676  77.8953702  62.8705570  41.6059886  76.5524187  62.3919151
  36.5183301  82.4802916  61.2279338  36.4036816  81.5788173  61.5286437
  35.6627819  82.7266613  60.8764154  43.5975139  90.4220656  62.8266838
  43.1538993  89.6357035  62.5087743  44.2592352  90.6099807  62.1610729
  38.3562260  91.9516458  57.3527517  38.9069685  91.8233521  56.5804511
  37.5173736  92.2511347  57.0022410  45.6956377  90.7023456  60.8548240
  45.6774852  91.5232337  60.3628509  46.6176297  90.5777532  61.0798381
  42.1529431  88.2167586  61.6971748  42.6857768  87.4555874  61.4671056
  41.6243512  87.9241238  62.4395902  33.3884977  85.6461182  50.0453992
  34.2260199  86.0558191  49.8287700  33.5663244  84.7060624  50.0154186
  45.2849409  83.3136263  45.7337825  44.7696032  84.0840868  45.9726212
  45.0126717  82.6401399  46.3570886  50.2583683  86.0668618  47.6690998
  49.4813126  85.7279777  47.2246160  50.9375164  86.0721241  46.9945963
  45.0735712  81.1863355  47.5597606  44.7685847  81.5009504  48.4107749
  46.0266154  81.2644775  47.6024939  43.5182144  87.3453578  49.2090560
  42.9903505  86.6106338  48.8963797  43.0169646  88.1228255  48.9630528
  48.4974990  85.5402599  54.3257606  47.8398664  86.2301860  54.4137735
  49.3015389  85.9299031  54.6691593  38.2500871  78.0073245  51.5697171
  38.8244623  77.7848426  50.8370364  38.8371854  78.0761939  52.3225773
  47.3080449  83.8946972  52.3761548  47.8212330  84.5276963  52.8783258
  47.9581672  83.2948167  52.0104908  38.5770458  80.0377706  45.5893057
  37.7407771  80.3752392  45.9102331  38.4375228  79.9026685  44.6520194
  40.5523539  74.8814494  50.2972241  39.8987951  74.5663511  49.6728856
  40.5104013  74.2590234  51.0232064  41.6634744  85.1633789  42.2125533
  40.7561806  84.9323042  42.4116682  42.1605776  84.3671408  42.3999515
  44.5702823  93.8731296  45.1322219  43.8964522  94.1762993  45.7407177
  44.9568645  94.6760376  44.7827676  44.5696327  82.7687843  49.7522569
  45.3168146  83.2809240  49.4429691  44.8387917  82.4471895  50.6126962
  42.8422977  85.2646383  46.7349523  41.9334197  84.9805416  46.8321993
  42.8718061  85.6845462  45.8752830  48.0742245  88.8752973  50.5040691
  47.6204572  88.0343883  50.5605881  47.4436211  89.5114371  50.8415471
  46.5175184  90.7129470  51.4390509  46.8098158  91.2734527  50.7202874
  47.0273805  91.0058031  52.1943668  33.4111148  82.9851898  50.7164725
  33.2135547  82.3921258  49.9915792  32.8557812  82.6804108  51.4340664
  41.3907871  82.8775004  52.8359318  41.4456481  81.9248840  52.7601795
  40.5799073  83.0334443  53.3200617  42.5399065  86.8055127  44.0737602
  42.1018495  86.0890986  43.6143239  43.2809506  87.0331242  43.5122693
  39.3300231  81.4952064  50.5949697  38.5168097  81.7946234  51.0014889
  39.8259225  81.1007753  51.3124180  41.4808809  91.4909821  52.5283962
  41.4384988  91.7170667  51.5992494  42.3971508  91.2573195  52.6769763
  44.9274443  81.9593888  59.4264591  45.2823831  82.1865361  60.2859057
  45.5746574  82.2912265  58.8041846  50.6572180  85.0812324  50.1313920
  50.5190078  85.2713920  49.2035109  50.3008399  85.8431707  50.5881971
  38.8214306  79.0670419  56.2110932  39.4613685  78.9259178  55.5133896
  37.9891837  78.7804933  55.8349534  50.6841559  87.1488851  55.1425192
  51.1178066  87.0564140  55.9908246  51.3973140  87.1246352  54.5045208
  39.5974610  88.3672850  52.3245925  40.3915208  87.8723170  52.1228500
  38.8866302  87.8390713  51.9613630  44.4169454  90.7490945  56.6758292
  44.4706477  91.3181882  57.4436008  43.5484236  90.9192830  56.3112329
  35.9057373  82.5115932  48.4005677  34.9754961  82.4500387  48.6175640
  36.0014845  81.9891884  47.6042319  35.8242922  79.0370744  50.9883919
  36.0849740  79.9516078  50.8793080  36.6460095  78.5695187  51.1380532
  37.2967848  80.4508502  58.1582744  37.9690901  80.2425864  57.5095393
  36.4697634  80.2530588  57.7187976  51.5457109  87.1912552  57.6758077
  51.7392999  88.0958362  57.9217352  51.4457727  86.7319971  58.5096662
  46.6072218  87.3419295  63.2498958  46.4557724  87.1129846  62.3329041
  46.5976897  88.2989896  63.2630303  43.3757554  84.9151207  58.2345224
  44.3049614  85.0662367  58.0614192  42.9548584  85.0035228  57.3793871
  42.1745886  88.9401872  56.0043762  42.0356972  88.5720656  56.8769700
  41.3860482  89.4549511  55.8327720  42.7694038  94.0410968  47.3469298
  42.9445794  93.5699011  48.1614921  42.0826826  94.6676734  47.5750559
  43.7251101  88.3183474  53.3932600  43.3900934  88.2784244  54.2890249
  43.2255047  87.6528190  52.9203010  37.6995345  83.7251104  58.9185181
  37.5615143  82.9931343  59.5196720  38.6100268  83.6360005  58.6369369
  46.6610293  85.6639509  43.6669659  46.0439463  84.9386337  43.5702712
  46.1926781  86.4248869  43.3236734  40.3277646  83.4371064  58.4068860
  41.0377264  82.7964256  58.3655479  40.2846954  83.6883959  59.3295041
  48.3164424  90.3738417  61.3275440  48.2576971  89.6897637  60.6606023
  48.7183943  91.1157407  60.8756066  39.0406580  80.4236282  60.2264500
  38.5043937  79.9727020  60.8786096  38.4523288  80.5582191  59.4834964
  37.3355123  97.1900331  54.1209159  37.5751721  97.8218855  54.7988177
  36.4924320  96.8388371  54.4074518  38.4508839  79.8824933  42.7890964
  37.5738305  79.7613734  42.4253210  38.9266592  79.0911011  42.5369852
  48.3181832  88.3378001  59.5589419  47.4308610  88.0003923  59.6815818
  48.8880383  87.6061032  59.7958185  29.9710979  84.6702093  52.8832471
  30.6582019  84.3563823  52.2953486  29.8159107  85.5743457  52.6099722
  34.7745701  79.5592289  57.3117494  34.6903890  78.9517959  56.5767904
  33.9528407  80.0501308  57.3126991  41.8482985  92.9979453  56.5250663
  41.7753157  93.8034425  57.0369967  41.4060378  93.1971419  55.6998684
  41.6372765  92.2351223  50.0353484  40.8540287  92.7772904  50.1291709
  42.3365510  92.7525203  50.4347725  44.3081669  92.8966287  58.6808821
  45.0209641  93.5313752  58.6084723  43.8171697  92.9930153  57.8648823
  46.0299195  86.8017540  50.2526113  45.0955474  86.9219003  50.0830817
  46.2075864  85.8990007  49.9886123  41.5304384  80.1863236  52.4059374
  41.1602171  79.6334276  53.0940280  42.0263476  79.5821369  51.8534374
  49.4171747  82.6434859  50.7876147  49.8832199  83.4762851  50.7136450
  49.8679247  82.1779841  51.4921405  39.3593582  90.6460731  59.5014392
  40.0603042  91.2797214  59.6543786  38.8888697  90.9875462  58.7410031
  47.4847978  88.9878681  47.7862299  47.7607822  88.8735275  48.6956173
  46.6152477  88.5896166  47.7474472  47.1594868  83.2005338  57.3266942
  46.5066318  83.4481246  56.6719395  47.5375248  82.3869477  56.9929420
  44.1202042  93.2365032  51.4295113  44.3024436  92.4186687  51.8922865
  44.9435028  93.4532724  50.9920003  44.4544207  92.1633217  48.6910161
  44.9831974  91.6525671  48.0780323  44.7172427  91.8475747  49.5555694
  43.2082441  83.9425149  63.8132979  42.5323078  83.8419279  64.4835355
  44.0310075  83.7864363  64.2768977  34.9561300  90.1797086  56.4345495
  35.5414737  89.4340774  56.5673399  34.7586139  90.4901043  57.3182159
  37.8099955  93.2148333  51.4507937  37.1410331  93.6994461  50.9671977
  37.6712825  93.4617554  52.3651316  29.5478955  82.7502686  55.1549938
  29.5863054  82.2166277  55.9487056  29.0419248  82.2237892  54.5360915
  41.9505224  95.2492077  58.0490595  42.5023532  95.4123698  58.8139681
  42.2911417  95.8396515  57.3770620  36.9269717  77.5967227  58.6512480
  36.9911044  78.4582058  58.2389878  36.8636837  76.9841228  57.9184839
  36.4021990  79.6690359  62.2985514  37.0294029  79.2867437  62.9123039
  35.5449909  79.4504561  62.6641207  46.8016098  90.0753334  63.9039250
  47.3456002  90.6883293  63.4094205  46.2202943  90.6332913  64.4206263
  33.1787532  81.4766788  48.2303869  33.4740974  80.5677467  48.1770923
  32.2775568  81.4554528  47.9084872  45.0873611  93.1974052  55.0354278
  44.9624751  92.3963792  54.5265223  45.7452702  93.6920246  54.5468248
  36.7081779  79.5522785  54.2131418  35.9868365  80.1658753  54.0738891
  37.4975035  80.0880550  54.1348064  47.1508520  90.9983073  56.6633828
  46.2038855  90.8788424  56.5912154  47.4991293  90.1105571  56.7460089
  34.9075374  79.1580886  48.3543194  34.5788080  78.2778265  48.1718300
  35.2614745  79.1028555  49.2419584  44.1554953  90.7935789  52.8638180
  44.0079915  89.8652496  53.0445750  44.9808446  90.8155879  52.3795255
  38.0217197  79.4453856  48.7218672  38.3613270  79.9739777  47.9997280
  38.4689318  79.7834262  49.4977239  47.7589075  91.6164347  53.9503053
  48.6835622  91.4107209  53.8127504  47.5904378  91.3680749  54.8592394
  40.0085344  77.9428477  46.9211965  40.7293707  78.3209730  46.4175682
  39.3850648  78.6617354  47.0246943  44.1516467  78.6473626  47.8570297
  44.3680082  79.5298264  47.5559125  43.6710534  78.2559840  47.1275939
  38.8915689  81.6059340  54.4341042  38.7460269  81.9199643  55.3265323
  38.4140892  82.2244240  53.8811940  47.5484391  92.1350015  49.3065144
  47.7221269  91.5696437  48.5538997  48.0413282  92.9350910  49.1244634
  33.3661351  84.1464684  57.3728703  32.8214819  84.9224492  57.5048977
  34.2440701  84.4935488  57.2147824  40.1548967  77.4776268  49.7509501
  40.2764879  76.5492914  49.9500389  39.8651010  77.4914954  48.8387817
  53.4023782  84.8986438  50.9255444  53.8454928  84.1493763  50.5274567
  52.5250292  84.8896574  50.5429176  48.5359563  91.4516779  46.4062042
  49.2310468  92.0723472  46.6249357  48.8782714  90.6012131  46.6814420
  34.1527373  83.2734580  60.2658860  33.4109109  83.4217216  60.8523490
  33.8320117  83.5342846  59.4025609  50.4350987  88.9016485  47.9349373
  50.9602311  89.2403758  47.2098693  50.3473339  87.9663500  47.7512508
  42.0971035  92.8150558  60.0639250  42.4058162  92.5699705  60.9361949
  42.8946517  93.0197197  59.5758120  42.1191647  94.9688468  52.2944626
  41.6796638  94.4764847  52.9877483  42.8699764  94.4261436  52.0536702
  34.5983986  91.1600009  52.2969254  35.4242006  90.8603781  51.9167898
  34.2478038  90.3907631  52.7459043  39.5665519  90.5126477  54.3666928
  38.9445529  89.8497182  54.0669156  40.2370386  90.5387609  53.6840576
  32.7992591  89.0786335  53.2558188  31.9624500  88.6508510  53.0742189
  32.7716237  89.2718779  54.1928979  39.6390047  78.9908265  63.9599434
  39.6878202  79.8670388  63.5777204  40.1812561  78.4485658  63.3871077
  50.1244893  89.5349388  63.2400571  49.3340436  89.5173527  62.7005071
  49.8878247  90.0737682  63.9949608  50.2442768  86.3841855  60.5533300
  50.2940773  86.2191862  61.4948822  50.1356691  85.5169114  60.1631180
  39.1279026  89.0630401  47.8425389  39.2767147  89.7465865  47.1892061
  39.9345470  89.0435491  48.3574844  47.5346530  82.3672783  61.8692606
  48.4356393  82.2279248  61.5776604  47.6094505  82.5327238  62.8090784
  51.7460965  88.8038796  60.7975321  51.4545773  89.1668777  61.6338782
  51.1333096  88.0905805  60.6188653  52.9456647  86.3691676  53.3177891
  53.7803538  86.8081480  53.4815452  53.0815776  85.8930329  52.4986137
  36.8831659  85.0895578  48.8486457  36.6377701  84.1857908  49.0466668
  37.0527574  85.0912729  47.9065935  36.1527307  80.8223936  46.3472619
  35.4596552  80.8968291  45.6912655  35.9079059  80.0584279  46.8694136
  42.6274432  91.5578531  45.3137136  42.0548399  92.1768718  44.8607608
  43.2007226  92.1077893  45.8477058  45.8471692  91.8415681  46.4445718
  46.7802365  91.7761243  46.6478594  45.7594905  92.6771948  45.9860251
  48.4759708  91.1581551  43.4049666  48.3973340  90.8241415  44.2985424
  49.2969375  91.6503319  43.4041138  43.0121230  82.8939344  42.6553188
  43.9580335  82.7645552  42.7241606  42.6335475  82.1554006  43.1322617
  56.9914449  85.0859298  55.7532021  57.7217838  84.8244586  56.3139725
  56.3821395  84.3488020  55.7934089  42.8959923  86.9457090  64.1153845
  43.8162932  87.1235689  64.3093892  42.8609506  86.0013135  63.9633545
  41.1964148  80.8189320  42.5908074  40.2895603  80.5222433  42.6670787
  41.4740129  80.5219138  41.7242360  32.1142088  82.1395684  53.0407120
  31.7944872  81.2860992  52.7481494  31.5675516  82.3544262  53.7965087
  35.8921995  84.8558125  56.7576627  36.1108005  85.7875232  56.7764660
  36.3047769  84.4966099  57.5431430  40.7649861  80.4291330  66.1479376
  40.6646588  81.3785687  66.0791467  40.5471403  80.1009569  65.2755446
  39.9662932  77.6776255  42.7320053  40.8282096  78.0031154  42.9915870
  40.1513276  76.8907751  42.2193119  31.9830348  85.7598595  55.0100242
  31.2893819  85.3452548  54.4970196  32.7303339  85.8019132  54.4133661
  40.6281131  83.8588469  64.9644437  40.1448213  84.6588829  65.1708326
  40.7142070  83.8696414  64.0111881  33.8967090  85.6916849  52.8866257
  33.8737779  85.7904536  51.9348140  34.2067727  86.5382000  53.2083423
  36.5554468  87.7493004  57.0012871  37.5097722  87.7176946  56.9342803
  36.3566992  87.2883628  57.8163097  37.1453850  86.3194120  59.5683669
  37.9646739  86.8138199  59.5918506  37.4190658  85.4026088  59.5401236
  46.9020447  78.7104872  48.9311624  46.0146302  78.9954523  48.7131819
  47.3174436  78.5498636  48.0838901  34.9104697  93.2912623  54.0183069
  34.7759165  92.5313024  53.4521067  34.4936759  94.0153523  53.5511858
  46.0463660  88.4749547  43.0259644  46.7499510  88.6799549  43.6417300
  45.3226309  89.0426309  43.2908728  46.8761470  84.2259408  49.1461914
  46.8196672  84.6827960  48.3069547  47.4289813  83.4650093  48.9684757
  54.9978614  82.7545213  52.4783325  54.4378172  82.8238403  53.2514887
  54.3922118  82.5786198  51.7582821  38.0673823  94.1881940  54.2301511
  37.9506207  95.1327373  54.1280202  37.2466269  93.8855502  54.6187311
  47.9550358  88.9132076  45.0758104  48.7895961  88.4813275  44.8935579
  47.7934700  88.7414090  46.0034999  47.6096250  85.4164189  46.4414443
  47.5545054  85.2508461  45.5002888  46.9842305  86.1240222  46.5976633
  32.3988765  80.6532254  60.2675866  33.0447628  80.1431208  60.7563091
  32.1905916  81.3900935  60.8419291  44.9242157  87.7213101  65.7668006
  45.7933317  87.8953754  65.4054641  44.4448908  88.5407518  65.6443736
  40.9192375  74.9172298  46.0199762  40.9071045  75.8614138  46.1768033
  41.8115797  74.7342444  45.7259223  39.0928337  94.8410202  57.4457440
  39.9955584  94.8733813  57.7623935  38.8665707  93.9110653  57.4603776
  40.8481939  93.5941189  54.1067519  39.8977570  93.5943050  53.9931891
  41.1514425  92.8473923  53.5903553  36.7386256  77.7999871  64.3650880
  37.6017717  77.4436676  64.5754204  36.1651666  77.4613766  65.0526284
  56.5834633  99.4301727  55.1713281  57.2213043  99.3108475  54.4676621
  56.4655476 100.3782571  55.2301233  53.3924339  99.3829155  55.1074806
  53.0542850  99.2670220  54.2195340  54.2614107  98.9820320  55.0875812
  49.2511155 101.2364632  51.0971697  48.6876020 101.1454569  50.3287984
  49.1363550 100.4164536  51.5774189  53.8744122 100.5364007  61.0661011
  53.8632763 100.1416805  60.1941515  54.0364761  99.8030080  61.6594783
  46.7975587 102.7315823  53.9355917  47.5896878 102.3906648  53.5202216
  47.0372237 102.8410798  54.8558070  54.8310713 104.9035599  46.4086161
  54.1798693 105.4889680  46.0220175  55.6255076 105.4341794  46.4681199
  48.7566340 101.9924737  46.8073296  49.5297216 101.4453724  46.6686172
  49.1091739 102.8568986  47.0187757  50.5951383 103.3201119  60.0140195
  50.3041249 104.2246750  59.8986861  51.2308367 103.3617646  60.7284265
  51.5207590 100.6977967  56.6041555  52.1171162 100.4733990  55.8898518
  51.5782561  99.9562713  57.2067003  51.0932618  98.1517403  44.4391746
  51.3458139  97.6298924  43.6775209  50.1557177  97.9883548  44.5418429
  56.1375901  97.1553181  52.2466489  56.9238990  96.7372604  51.8956906
  56.4014605  98.0599273  52.4148137  56.3085978 102.5926031  46.9455146
  55.6731811 102.6660658  47.6576050  55.9783385 103.1819630  46.2674225
  61.5384328  97.0928414  53.1499467  62.2709500  96.5227631  53.3837297
  60.7823684  96.7050015  53.5905973  50.8128907 100.0545509  46.6416121
  50.6965165  99.3790412  47.3097205  50.9231167  99.5677883  45.8248274
  53.1560448  99.5155656  50.3462810  52.7918655  98.9886277  51.0575731
  54.0127564  99.1254125  50.1729295  59.0609749  90.8049988  57.6094076
  58.7293073  91.6745399  57.3855291  58.4655362  90.4886272  58.2888106
  52.7965935  94.5445555  45.3424158  52.9640337  95.4125792  45.7094629
  52.6063104  94.7072837  44.4185448  55.5541268 103.0062534  57.0089989
  55.2541991 103.9087573  56.9005796  55.2092328 102.7394718  57.8611142
  49.0053750  99.4576331  53.0426693  48.0804246  99.3252545  53.2504385
  49.2538163 100.2370550  53.5396636  58.9538412  95.5245075  54.6887426
  58.0455289  95.4560483  54.3946187  58.9026008  96.0017019  55.5169252
  52.7755156  97.0003213  46.3270825  52.6554781  97.4460264  47.1656306
  52.0807744  97.3488531  45.7684363  46.3662561  99.1009605  53.8770482
  46.4954942  99.3544084  54.7909894  45.6860012  99.6937313  53.5575137
  53.0279278  96.9434720  62.6322323  52.2512612  97.5028640  62.6225188
  53.6669841  97.4291503  63.1537194  60.8200058  93.7261513  56.4665300
  60.1774439  94.0194046  55.8205095  60.3154987  93.6114433  57.2718497
  58.4740222  97.4724686  47.1551159  59.3858078  97.7052073  46.9798857
  57.9649869  98.0561730  46.5926238  51.2825650  99.7520173  62.1940290
  52.0240334 100.2905217  61.9175114  50.5762635 100.3786462  62.3511842
  56.7580990 101.8949314  60.7912452  57.1664346 101.4531724  60.0467084
  56.0358251 101.3201941  61.0446645  53.1112060  96.8321921  58.1646009
  53.9573255  97.2561334  58.3080658  53.0510697  96.1755545  58.8584572
  57.0809804 102.4550505  54.5464741  56.4518667 102.6196219  53.8440809
  56.6935466 102.8692114  55.3175705  60.9599036 103.3904942  51.9009105
  60.2750074 103.7703844  51.3506138  61.0442886 104.0000269  52.6341052
  56.2611505  94.4926289  59.8227182  56.0172437  95.2468350  59.2861458
  56.5371436  94.8711637  60.6574430  58.2149968 101.0364901  58.5004448
  58.4266863 101.6796661  57.8238829  58.1679716 100.2027218  58.0326378
  55.8176197  93.6482722  55.4041020  54.9560676  93.9463976  55.6957758
  55.8438631  93.8653121  54.4722053  52.6337766 102.1924913  51.8114826
  53.0976112 102.4712616  51.0219448  52.3694564 101.2908357  51.6287917
  49.5261847 101.7396394  54.7494589  50.0963204 102.1683663  54.1112074
  50.1169959 101.4578979  55.4478775  51.5706652  98.3148065  48.6204391
  52.2730696  98.7669109  49.0878317  51.2387281  97.6731884  49.2484284
  50.0187014  96.9059822  62.9955600  49.3885674  97.5876102  63.2290997
  49.9123102  96.7942903  62.0508739  45.3131986  96.5731618  53.9221525
  44.5231040  96.8289146  53.4461635  45.8043234  97.3879956  54.0273565
  59.3295796 103.9136857  56.6726805  60.1513239 103.5117044  56.3909487
  59.3258199 103.8105091  57.6242921  47.2646732  96.9376197  50.8805001
  46.4677895  97.0494891  51.3988497  47.0372324  97.2762849  50.0145892
  53.0952399 103.4620900  58.8287516  53.1596832 103.9241307  59.6645688
  52.3863323 102.8318265  58.9569826  43.5969689  96.8262108  56.3536515
  43.8477728  97.7109118  56.6194091  44.1329238  96.6466710  55.5811607
  67.4201789 100.2575605  53.0211777  66.6665497  99.6883003  52.8655781
  67.5549330 100.2238270  53.9682412  52.8100417 105.1289008  48.6966496
  52.6746092 105.9740543  49.1251344  53.3510229 105.3308285  47.9332430
  49.2967756  91.2080587  65.3580851  48.9034702  90.6546786  66.0328496
  50.1133897  91.5191166  65.7487369  46.2629814 102.6464446  49.2694421
  46.7754335 103.4407696  49.4199986  46.9152527 101.9490736  49.2028023
  48.0724699 105.7630202  51.3517174  48.2491327 106.6848167  51.1638158
  48.8681532 105.4488621  51.7811554  52.2135717  92.6238467  62.9501108
  52.9545431  93.2245620  62.8705570  52.4453640  91.8816104  62.3919151
  47.3577055  97.8094834  61.2279338  47.2430571  96.9080091  61.5286437
  46.5021573  98.0558531  60.8764154  54.4368893 105.7512574  62.8266838
  53.9932747 104.9648953  62.5087743  55.0986107 105.9391725  62.1610729
  49.1956014 107.2808376  57.3527517  49.7463440 107.1525439  56.5804511
  48.3567490 107.5803265  57.0022410  56.5350131 106.0315374  60.8548240
  56.5168607 106.8524255  60.3628509  57.4570051 105.9069449  61.0798381
  52.9923185 103.5459504  61.6971748  53.5251522 102.7847792  61.4671056
  52.4637267 103.2533155  62.4395902  56.1592880  88.6519570  57.2265390
  55.8157150  89.5421211  57.1504500  56.5271843  88.4621227  56.3634975
  44.2278731 100.9753100  50.0453992  45.0653953 101.3850108  49.8287700
  44.4056999 100.0352542  50.0154186  56.1243163  98.6428181  45.7337825
  55.6089787  99.4132785  45.9726212  55.8520472  97.9693317  46.3570886
  53.7090274  93.4877881  50.7923063  52.8531871  93.0984732  50.6128702
  54.1217226  93.5669842  49.9322849  55.2389421  91.0224225  55.1914623
  54.7354216  90.9854360  54.3782428  55.5320028  91.9316967  55.2511280
  51.4832307  91.1062954  54.1980805  52.3485303  90.9105763  53.8386694
  51.5509816  90.8773306  55.1250161  61.0977437 101.3960535  47.6690998
  60.3206880 101.0571695  47.2246160  61.7768918 101.4013158  46.9945963
  55.9129466  96.5155273  47.5597606  55.6079602  96.8301422  48.4107749
  56.8659908  96.5936693  47.6024939  54.3575898 102.6745496  49.2090560
  53.8297260 101.9398256  48.8963797  53.8563401 103.4520172  48.9630528
  59.3368744 100.8694517  54.3257606  58.6792419 101.5593778  54.4137735
  60.1409143 101.2590948  54.6691593  49.0894626  93.3365162  51.5697171
  49.6638378  93.1140344  50.8370364  49.6765608  93.4053857  52.3225773
  58.1474203  99.2238889  52.3761548  58.6606085  99.8568881  52.8783258
  58.7975427  98.6240085  52.0104908  49.4164213  95.3669623  45.5893057
  48.5801525  95.7044310  45.9102331  49.2768983  95.2318603  44.6520194
  51.3917293  90.2106411  50.2972241  50.7381706  89.8955428  49.6728856
  51.3497768  89.5882152  51.0232064  52.5028498 100.4925706  42.2125533
  51.5955560 100.2614960  42.4116682  52.9999530  99.6963326  42.3999515
  55.4096577 109.2023213  45.1322219  54.7358276 109.5054910  45.7407177
  55.7962399 110.0052294  44.7827676  54.6255034  96.6988345  54.6219889
  53.7077595  96.9203292  54.4641577  55.0415177  96.7734655  53.7631596
  55.4090082  98.0979760  49.7522569  56.1561901  98.6101158  49.4429691
  55.6781671  97.7763813  50.6126962  53.6816732 100.5938301  46.7349523
  52.7727951 100.3097334  46.8321993  53.7111816 101.0137380  45.8752830
  58.9135999 104.2044891  50.5040691  58.4598326 103.3635801  50.5605881
  58.2829966 104.8406289  50.8415471  57.8568919  95.1336877  51.7341358
  57.1191676  94.6214263  52.0651601  58.1095692  94.6937258  50.9224635
  57.3568938 106.0421387  51.4390509  57.6491913 106.6026444  50.7202874
  57.8667559 106.3349948  52.1943668  57.9580546  87.9113129  52.3283127
  58.2639423  87.0510492  52.0409042  58.6833151  88.5030749  52.1282121
  44.2504902  98.3143815  50.7164725  44.0529302  97.7213176  49.9915792
  43.6951566  98.0096025  51.4340664  52.2301626  98.2066922  52.8359318
  52.2850236  97.2540758  52.7601795  51.4192828  98.3626361  53.3200617
  53.3792820 102.1347045  44.0737602  52.9412250 101.4182904  43.6143239
  54.1203260 102.3623160  43.5122693  50.1693986  96.8243982  50.5949697
  49.3561851  97.1238152  51.0014889  50.6652980  96.4299670  51.3124180
  52.3202564 106.8201738  52.5283962  52.2778742 107.0462585  51.5992494
  53.2365262 106.5865113  52.6769763  55.7668197  97.2885806  59.4264591
  56.1217585  97.5157279  60.2859057  56.4140329  97.6204183  58.8041846
  61.4965934 100.4104242  50.1313920  61.3583833 100.6005838  49.2035109
  61.1402153 101.1723625  50.5881971  49.6608061  94.3962337  56.2110932
  50.3007440  94.2551096  55.5133896  48.8285591  94.1096850  55.8349534
  61.5235314 102.4780769  55.1425192  61.9571821 102.3856058  55.9908246
  62.2366895 102.4538269  54.5045208  50.4368364 103.6964767  52.3245925
  51.2308963 103.2015088  52.1228500  49.7260057 103.1682631  51.9613630
  55.2563209 106.0782863  56.6758292  55.3100231 106.6473799  57.4436008
  54.3877990 106.2484748  56.3112329  46.7451128  97.8407849  48.4005677
  45.8148716  97.7792305  48.6175640  46.8408600  97.3183802  47.6042319
  46.6636677  94.3662662  50.9883919  46.9243494  95.2807995  50.8793080
  47.4853849  93.8987105  51.1380532  48.1361602  95.7800419  58.1582744
  48.8084656  95.5717781  57.5095393  47.3091389  95.5822505  57.7187976
  62.3850864 102.5204470  57.6758077  62.5786754 103.4250280  57.9217352
  62.2851482 102.0611889  58.5096662  54.0387174  92.4062360  60.1748404
  53.3915089  93.1052310  60.0812881  54.8088190  92.8398504  60.5424653
  57.4465972 102.6711212  63.2498958  57.2951479 102.4421764  62.3329041
  57.4370652 103.6281814  63.2630303  54.2151309 100.2443125  58.2345224
  55.1443369 100.3954285  58.0614192  53.7942339 100.3327146  57.3793871
  53.0139640 104.2693789  56.0043762  52.8750726 103.9012574  56.8769700
  52.2254237 104.7841429  55.8327720  54.5644856 103.6475392  53.3932600
  54.2294688 103.6076162  54.2890249  54.0648801 102.9820108  52.9203010
  48.5389100  99.0543022  58.9185181  48.4008897  98.3223261  59.5196720
  49.4494023  98.9651922  58.6369369  57.5004047 100.9931426  43.6669659
  56.8833218 100.2678255  43.5702712  57.0320536 101.7540787  43.3236734
  51.1671400  98.7662981  58.4068860  51.8771019  98.1256174  58.3655479
  51.1240708  99.0175876  59.3295041  59.1558179 105.7030335  61.3275440
  59.0970725 105.0189555  60.6606023  59.5577697 106.4449325  60.8756066
  49.8800334  95.7528199  60.2264500  49.3437691  95.3018938  60.8786096
  49.2917043  95.8874108  59.4834964  49.2902593  95.2116851  42.7890964
  48.4132059  95.0905652  42.4253210  49.7660346  94.4202929  42.5369852
  59.1575586 103.6669919  59.5589419  58.2702365 103.3295841  59.6815818
  59.7274137 102.9352950  59.7958185  40.8104733  99.9994011  52.8832471
  41.4975773  99.6855741  52.2953486  40.6552862 100.9035375  52.6099722
  45.6139455  94.8884207  57.3117494  45.5297644  94.2809877  56.5767904
  44.7922162  95.3793225  57.3126991  52.6876740 108.3271371  56.5250663
  52.6146911 109.1326343  57.0369967  52.2454133 108.5263337  55.6998684
  52.4766519 107.5643141  50.0353484  51.6934041 108.1064821  50.1291709
  53.1759264 108.0817121  50.4347725  55.7863169  93.3737771  52.6787689
  56.2831869  92.6207733  52.3588760  55.0150151  93.4102087  52.1130899
  63.6392927  99.0778136  54.3205981  63.6282803  99.9602852  53.9499914
  62.7710306  98.7249687  54.1260518  55.1475423 108.2258205  58.6808821
  55.8603395 108.8605670  58.6084723  54.6565452 108.3222071  57.8648823
  56.8692950 102.1309458  50.2526113  55.9349229 102.2510920  50.0830817
  57.0469618 101.2281925  49.9886123  52.3698138  95.5155154  52.4059374
  51.9995926  94.9626194  53.0940280  52.8657230  94.9113287  51.8534374
  60.2565501  97.9726777  50.7876147  60.7225954  98.8054769  50.7136450
  60.7073002  97.5071759  51.4921405  50.1987337 105.9752649  59.5014392
  50.8996796 106.6089132  59.6543786  49.7282452 106.3167380  58.7410031
  58.3241732 104.3170598  47.7862299  58.6001576 104.2027193  48.6956173
  57.4546231 103.9188083  47.7474472  58.2282164  90.3407364  54.8267048
  57.3145244  90.5711591  54.9949255  58.6575266  90.4245808  55.6781081
  57.9988623  98.5297256  57.3266942  57.3460073  98.7773164  56.6719395
  58.3769002  97.7161394  56.9929420  54.9595796 108.5656949  51.4295113
  55.1418191 107.7478605  51.8922865  55.7828782 108.7824641  50.9920003
  55.2937962 107.4925134  48.6910161  55.8225728 106.9817589  48.0780323
  55.5566182 107.1767665  49.5555694  54.0476196  99.2717067  63.8132979
  53.3716833  99.1711196  64.4835355  54.8703829  99.1156281  64.2768977
  45.7955055 105.5089004  56.4345495  46.3808491 104.7632692  56.5673399
  45.5979893 105.8192960  57.3182159  40.3872709  98.0794604  55.1549938
  40.4256809  97.5458195  55.9487056  39.8813002  97.5529809  54.5360915
  47.7663472  92.9259144  58.6512480  47.8304798  93.7873975  58.2389878
  47.7030592  92.3133146  57.9184839  47.2415744  94.9982277  62.2985514
  47.8687783  94.6159354  62.9123039  46.3843663  94.7796479  62.6641207
  57.6409853 105.4045252  63.9039250  58.1849757 106.0175210  63.4094205
  57.0596698 105.9624830  64.4206263  44.0181287  96.8058706  48.2303869
  44.3134728  95.8969384  48.1770923  43.1169323  96.7846445  47.9084872
  55.9267366 108.5265970  55.0354278  55.8018505 107.7255710  54.5265223
  56.5846457 109.0212163  54.5468248  47.5475534  94.8814703  54.2131418
  46.8262120  95.4950670  54.0738891  48.3368790  95.4172467  54.1348064
  57.9902274 106.3274990  56.6633828  57.0432610 106.2080341  56.5912154
  58.3385047 105.4397488  56.7460089  50.3501847  92.2169129  60.4872070
  50.8736249  92.4631426  61.2498379  50.1314181  93.0489164  60.0675207
  45.7469129  94.4872804  48.3543194  45.4181835  93.6070183  48.1718300
  46.1008499  94.4320472  49.2419584  54.9948707 106.1227706  52.8638180
  54.8473670 105.1944414  53.0445750  55.8202201 106.1447797  52.3795255
  48.8610952  94.7745773  48.7218672  49.2007024  95.3031695  47.9997280
  49.3083072  95.1126180  49.4977239  58.5982829 106.9456265  53.9503053
  59.5229377 106.7399126  53.8127504  58.4298133 106.6972666  54.8592394
  51.5554393  93.1582824  58.1721740  51.2151213  92.3590637  58.5742420
  50.8493399  93.4584535  57.5998573  52.2070864  90.2432137  56.6249063
  53.0296934  89.7692615  56.5027953  52.4508928  91.0222620  57.1247749
  50.8479099  93.2720395  46.9211965  51.5687461  93.6501648  46.4175682
  50.2244403  93.9909272  47.0246943  54.9910222  93.9765544  47.8570297
  55.2073836  94.8590182  47.5559125  54.5104289  93.5851757  47.1275939
  49.7309443  96.9351257  54.4341042  49.5854024  97.2491560  55.3265323
  49.2534647  97.5536158  53.8811940  51.5905826  93.9253805  54.4821931
  51.5767395  93.0294899  54.1454229  52.3078254  93.9324469  55.1160217
  53.4431957  94.3591145  56.5275059  53.1849735  95.2808216  56.5259389
  52.9116997  93.9621580  57.2175523  58.3878145 107.4641933  49.3065144
  58.5615023 106.8988355  48.5538997  58.8807037 108.2642827  49.1244634
  44.2055105  99.4756602  57.3728703  43.6608573 100.2516410  57.5048977
  45.0834455  99.8227406  57.2147824  50.9942722  92.8068186  49.7509501
  51.1158633  91.8784832  49.9500389  50.7044764  92.8206872  48.8387817
  53.8633912  90.4923096  52.8876221  53.8855609  90.5562429  51.9328201
  54.2801971  89.6527605  53.0816727  64.2417537 100.2278356  50.9255444
  64.6848683  99.4785681  50.5274567  63.3644047 100.2188492  50.5429176
  59.3753318 106.7808697  46.4062042  60.0704223 107.4015390  46.6249357
  59.7176468 105.9304048  46.6814420  44.9921127  98.6026498  60.2658860
  44.2502863  98.7509133  60.8523490  44.6713871  98.8634764  59.4025609
  61.2744741 104.2308403  47.9349373  61.7996065 104.5695675  47.2098693
  61.1867094 103.2955418  47.7512508  52.9364790 108.1442476  60.0639250
  53.2451916 107.8991623  60.9361949  53.7340272 108.3489115  59.5758120
  45.4377741 106.4891927  52.2969254  46.2635761 106.1895699  51.9167898
  45.0871793 105.7199549  52.7459043  50.4059274 105.8418395  54.3666928
  49.7839283 105.1789100  54.0669156  51.0764141 105.8679527  53.6840576
  43.6386346 104.4078253  53.2558188  42.8018254 103.9800427  53.0742189
  43.6109991 104.6010696  54.1928979  50.4783801  94.3200183  63.9599434
  50.5271957  95.1962306  63.5777204  51.0206316  93.7777576  63.3871077
  60.9638647 104.8641306  63.2400571  60.1734191 104.8465445  62.7005071
  60.7272002 105.4029600  63.9949608  61.0836522 101.7133773  60.5533300
  61.1334527 101.5483780  61.4948822  60.9750446 100.8461032  60.1631180
  49.9672781 104.3922318  47.8425389  50.1160901 105.0757783  47.1892061
  50.7739224 104.3727408  48.3574844  58.3740285  97.6964701  61.8692606
  59.2750147  97.5571165  61.5776604  58.4488259  97.8619155  62.8090784
  52.7083090  95.0731555  60.7145793  51.8386399  95.3665121  60.4428381
  52.9442570  95.6572000  61.4353056  62.5854719 104.1330714  60.7975321
  62.2939527 104.4960695  61.6338782  61.9726850 103.4197722  60.6188653
  63.7850401 101.6983594  53.3177891  64.6197293 102.1373398  53.4815452
  63.9209530 101.2222247  52.4986137  60.8341907  99.2563329  59.2655379
  61.3096029  99.4490975  58.4574231  59.9107473  99.3122515  59.0198763
  47.7225414 100.4187496  48.8486457  47.4771456  99.5149826  49.0466668
  47.8921328 100.4204646  47.9065935  55.4122124  91.2911172  58.2311213
  55.9304068  92.0272199  57.9057702  55.0577257  91.5975166  59.0657972
  46.9921061  96.1515853  46.3472619  46.2990306  96.2260208  45.6912655
  46.7472813  95.3876197  46.8694136  55.6634718  87.7111455  53.7512110
  55.9436472  87.0434644  54.3772536  56.4485325  87.9040550  53.2386773
  53.4668186 106.8870449  45.3137136  52.8942153 107.5060636  44.8607608
  54.0400980 107.4369810  45.8477058  59.5343576  96.1329089  57.4983685
  60.4860999  96.2327186  57.5195909  59.3647027  95.3407357  58.0081769
  57.5557956  93.2184672  57.6843086  56.9607888  93.4989685  56.9889574
  57.2707652  93.7078573  58.4559827  56.6865446 107.1707599  46.4445718
  57.6196119 107.1053160  46.6478594  56.5988659 108.0063866  45.9860251
  59.3153463 106.4873469  43.4049666  59.2367094 106.1533333  44.2985424
  60.1363130 106.9795237  43.4041138  62.0131654  99.3535208  56.6125984
  61.9807974  98.4151209  56.7985668  62.6232278  99.4319245  55.8791809
  53.8514985  98.2231261  42.6553188  54.7974090  98.0937470  42.7241606
  53.4729230  97.4845923  43.1322617  62.1626143  96.1446252  56.6584268
  61.6465191  95.3604709  56.4714196  63.0466091  95.8164968  56.8230787
  59.8236869  89.8887267  52.6180080  59.6261691  89.5802356  53.5023412
  60.4336575  90.6148906  52.7478010  67.8308204 100.4151215  55.7532021
  68.5611592 100.1536503  56.3139725  67.2215149  99.6779937  55.7934089
  65.9123501  98.5559078  56.3506472  65.1856665  98.4215043  55.7422964
  65.4970788  98.8635906  57.1563190  53.7353677 102.2749008  64.1153845
  54.6556687 102.4527607  64.3093892  53.7003260 101.3305053  63.9633545
  52.0357902  96.1481238  42.5908074  51.1289357  95.8514351  42.6670787
  52.3133883  95.8511056  41.7242360  42.9535842  97.4687601  53.0407120
  42.6338627  96.6152909  52.7481494  42.4069271  97.6836179  53.7965087
  46.7315750 100.1850042  56.7576627  46.9501760 101.1167150  56.7764660
  47.1441524  99.8258017  57.5431430  53.6519968  90.6918128  48.7452315
  52.8420696  90.3465212  49.1207561  54.3404385  90.3825671  49.3339927
  55.5810516  89.7696174  50.3676612  56.1341555  90.1891628  51.0266635
  55.8180602  88.8431922  50.4099568  51.6043615  95.7583248  66.1479376
  51.5040342  96.7077605  66.0791467  51.3865157  95.4301487  65.2755446
  50.8056687  93.0068173  42.7320053  51.6675851  93.3323071  42.9915870
  50.9907031  92.2199669  42.2193119  42.8224102 101.0890513  55.0100242
  42.1287574 100.6744466  54.4970196  43.5697093 101.1311049  54.4133661
  58.9589323  91.8796699  49.8755276  58.3787992  92.5381504  49.4933328
  58.6925256  91.0574044  49.4642693  57.4092890  91.2801757  52.0776596
  57.9092668  91.3918292  51.2690915  58.0528497  90.9762810  52.7177405
  51.4674885  99.1880387  64.9644437  50.9841967  99.9880747  65.1708326
  51.5535824  99.1988332  64.0111881  44.7360845 101.0208766  52.8866257
  44.7131533 101.1196454  51.9348140  45.0461481 101.8673917  53.2083423
  47.3948223 103.0784922  57.0012871  48.3491476 103.0468864  56.9342803
  47.1960746 102.6175545  57.8163097  47.9847605 101.6486038  59.5683669
  48.8040494 102.1430116  59.5918506  48.2584413 100.7318006  59.5401236
  57.7414201  94.0396790  48.9311624  56.8540056  94.3246440  48.7131819
  58.1568190  93.8790553  48.0838901  61.0928737  94.0643311  52.6465963
  61.8689127  94.5539763  52.9190580  60.3676871  94.4901365  53.1037833
  63.5301296  94.7770930  53.7039904  64.1245787  94.5366666  52.9933212
  63.6027880  94.0578061  54.3313440  56.8857415 103.8041465  43.0259644
  57.5893265 104.0091467  43.6417300  56.1620063 104.3718226  43.2908728
  57.7155225  99.5551326  49.1461914  57.6590426 100.0119877  48.3069547
  58.2683567  98.7942010  48.9684757  61.5260031  95.3441058  49.9712034
  61.2696965  94.9437693  50.8020241  60.9012899  96.0584852  49.8462173
  65.8372369  98.0837131  52.4783325  65.2771927  98.1530320  53.2514887
  65.2315872  97.9078116  51.7582821  58.7944112 104.2423994  45.0758104
  59.6289716 103.8105192  44.8935579  58.6328455 104.0706007  46.0034999
  58.4490004 100.7456107  46.4414443  58.3938808 100.5800378  45.5002888
  57.8236060 101.4532140  46.5976633  43.2382519  95.9824171  60.2675866
  43.8841383  95.4723125  60.7563091  43.0299670  96.7192853  60.8419291
  55.7635911 103.0505019  65.7668006  56.6327071 103.2245671  65.4054641
  55.2842663 103.8699436  65.6443736  51.7586130  90.2464216  46.0199762
  51.7464800  91.1906056  46.1768033  52.6509552  90.0634361  45.7259223
  51.6875694 108.9233106  54.1067519  50.7371325 108.9234968  53.9931891
  51.9908180 108.1765841  53.5903553  55.5738249  86.8406993  50.2745699
  54.8070645  86.2865479  50.4202381  55.9848954  86.9128861  51.1359850
  47.5780010  93.1291789  64.3650880  48.4411472  92.7728593  64.5754204
  47.0045421  92.7905683  65.0526284  66.9769656 112.4845099  52.2466489
  67.7632745 112.0664522  51.8956906  67.2408360 113.3891191  52.4148137
  72.3778083 112.4220332  53.1499467  73.1103255 111.8519549  53.3837297
  71.6217438 112.0341932  53.5905973  69.9003503 106.1341906  57.6094076
  69.5686828 107.0037317  57.3855291  69.3049116 105.8178190  58.2888106
  63.6359689 109.8737473  45.3424158  63.8034092 110.7417710  45.7094629
  63.4456859 110.0364755  44.4185448  69.7932166 110.8536992  54.6887426
  68.8849044 110.7852401  54.3946187  69.7419762 111.3308937  55.5169252
  63.6148910 112.3295131  46.3270825  63.4948536 112.7752181  47.1656306
  62.9201499 112.6780448  45.7684363  63.8673032 112.2726638  62.6322323
  63.0906366 112.8320558  62.6225188  64.5063595 112.7583421  63.1537194
  71.6593813 109.0553431  56.4665300  71.0168193 109.3485964  55.8205095
  71.1548741 108.9406351  57.2718497  69.3133976 112.8016604  47.1551159
  70.2251833 113.0343991  46.9798857  68.8043624 113.3853648  46.5926238
  63.9505814 112.1613838  58.1646009  64.7967009 112.5853252  58.3080658
  63.8904452 111.5047463  58.8584572  67.1005260 109.8218207  59.8227182
  66.8566191 110.5760267  59.2861458  67.3765190 110.2003554  60.6574430
  66.6569951 108.9774640  55.4041020  65.7954430 109.2755893  55.6957758
  66.6832386 109.1945039  54.4722053  60.1361511 106.5372505  65.3580851
  59.7428457 105.9838704  66.0328496  60.9527651 106.8483084  65.7487369
  63.0529472 107.9530384  62.9501108  63.7939185 108.5537537  62.8705570
  63.2847395 107.2108022  62.3919151  66.9986635 103.9811487  57.2265390
  66.6550904 104.8713129  57.1504500  67.3665598 103.7913145  56.3634975
  64.5484029 108.8169799  50.7923063  63.6925625 108.4276649  50.6128702
  64.9610980 108.8961760  49.9322849  66.0783175 106.3516142  55.1914623
  65.5747971 106.3146278  54.3782428  66.3713782 107.2608885  55.2511280
  62.3226061 106.4354872  54.1980805  63.1879058 106.2397681  53.8386694
  62.3903570 106.2065224  55.1250161  66.7523221 111.8447190  47.5597606
  66.4473356 112.1593340  48.4107749  67.7053663 111.9228610  47.6024939
  59.9288380 108.6657080  51.5697171  60.5032132 108.4432261  50.8370364
  60.5159363 108.7345774  52.3225773  68.9867957 114.5530807  52.3761548
  69.4999839 115.1860799  52.8783258  69.6369181 113.9532002  52.0104908
  60.2557967 110.6961541  45.5893057  59.4195280 111.0336228  45.9102331
  60.1162737 110.5610521  44.6520194  62.2311048 105.5398329  50.2972241
  61.5775460 105.2247346  49.6728856  62.1891522 104.9174069  51.0232064
  65.4648788 112.0280262  54.6219889  64.5471350 112.2495209  54.4641577
  65.8808932 112.1026573  53.7631596  66.2483836 113.4271678  49.7522569
  66.9955655 113.9393075  49.4429691  66.5175426 113.1055731  50.6126962
  68.6962673 110.4628794  51.7341358  67.9585430 109.9506181  52.0651601
  68.9489447 110.0229176  50.9224635  68.7974301 103.2405046  52.3283127
  69.1033177 102.3802410  52.0409042  69.5226905 103.8322667  52.1282121
  66.6061952 112.6177724  59.4264591  66.9611340 112.8449197  60.2859057
  67.2534083 112.9496100  58.8041846  60.5001815 109.7254255  56.2110932
  61.1401194 109.5843014  55.5133896  59.6679346 109.4388768  55.8349534
  57.5030431 109.6954580  50.9883919  57.7637249 110.6099913  50.8793080
  58.3247604 109.2279022  51.1380532  58.9755357 111.1092337  58.1582744
  59.6478410 110.9009699  57.5095393  58.1485143 110.9114423  57.7187976
  64.8780929 107.7354278  60.1748404  64.2308844 108.4344227  60.0812881
  65.6481944 108.1690422  60.5424653  60.7194089 111.0820117  60.2264500
  60.1831446 110.6310856  60.8786096  60.1310797 111.2166026  59.4834964
  60.1296348 110.5408768  42.7890964  59.2525814 110.4197569  42.4253210
  60.6054101 109.7494847  42.5369852  66.6256924 108.7029688  52.6787689
  67.1225623 107.9499651  52.3588760  65.8543905 108.7394005  52.1130899
  63.2091893 110.8447071  52.4059374  62.8389680 110.2918112  53.0940280
  63.7050985 110.2405205  51.8534374  71.0959256 113.3018695  50.7876147
  71.5619708 114.1346686  50.7136450  71.5466756 112.8363676  51.4921405
  69.0675919 105.6699282  54.8267048  68.1538998 105.9003509  54.9949255
  69.4969020 105.7537726  55.6781081  68.8382377 113.8589174  57.3266942
  68.1853827 114.1065081  56.6719395  69.2162757 113.0453312  56.9929420
  58.6057226 108.2551062  58.6512480  58.6698553 109.1165893  58.2389878
  58.5424346 107.6425064  57.9184839  58.0809499 110.3274195  62.2985514
  58.7081538 109.9451272  62.9123039  57.2237418 110.1088397  62.6641207
  58.3869288 110.2106620  54.2131418  57.6655874 110.8242588  54.0738891
  59.1762544 110.7464385  54.1348064  61.1895602 107.5461047  60.4872070
  61.7130004 107.7923343  61.2498379  60.9707935 108.3781082  60.0675207
  56.5862883 109.8164721  48.3543194  56.2575589 108.9362100  48.1718300
  56.9402254 109.7612390  49.2419584  59.7004706 110.1037691  48.7218672
  60.0400779 110.6323612  47.9997280  60.1476827 110.4418097  49.4977239
  62.3948147 108.4874742  58.1721740  62.0544967 107.6882555  58.5742420
  61.6887153 108.7876453  57.5998573  63.0464619 105.5724054  56.6249063
  63.8690688 105.0984532  56.5027953  63.2902682 106.3514538  57.1247749
  61.6872853 108.6012313  46.9211965  62.4081216 108.9793566  46.4175682
  61.0638157 109.3201190  47.0246943  65.8303976 109.3057462  47.8570297
  66.0467591 110.1882100  47.5559125  65.3498043 108.9143675  47.1275939
  62.4299580 109.2545723  54.4821931  62.4161149 108.3586816  54.1454229
  63.1472009 109.2616387  55.1160217  64.2825711 109.6883063  56.5275059
  64.0243489 110.6100134  56.5259389  63.7510752 109.2913498  57.2175523
  61.8336476 108.1360103  49.7509501  61.9552388 107.2076749  49.9500389
  61.5438519 108.1498789  48.8387817  64.7027667 105.8215014  52.8876221
  64.7249364 105.8854347  51.9328201  65.1195726 104.9819522  53.0816727
  61.3177556 109.6492101  63.9599434  61.3665711 110.5254223  63.5777204
  61.8600070 109.1069494  63.3871077  69.2134039 113.0256618  61.8692606
  70.1143902 112.8863083  61.5776604  69.2882014 113.1911073  62.8090784
  63.5476844 110.4023473  60.7145793  62.6780154 110.6957039  60.4428381
  63.7836325 110.9863918  61.4353056  71.6735662 114.5855246  59.2655379
  72.1489783 114.7782893  58.4574231  70.7501227 114.6414432  59.0198763
  66.2515878 106.6203090  58.2311213  66.7697822 107.3564117  57.9057702
  65.8971011 106.9267083  59.0657972  66.5028472 103.0403372  53.7512110
  66.7830226 102.3726562  54.3772536  67.2879079 103.2332468  53.2386773
  70.3737331 111.4621006  57.4983685  71.3254754 111.5619104  57.5195909
  70.2040781 110.6699275  58.0081769  68.3951710 108.5476590  57.6843086
  67.8001642 108.8281602  56.9889574  68.1101407 109.0370491  58.4559827
  72.8525409 114.6827126  56.6125984  72.8201729 113.7443127  56.7985668
  73.4626032 114.7611163  55.8791809  64.6908739 113.5523179  42.6553188
  65.6367844 113.4229387  42.7241606  64.3122984 112.8137841  43.1322617
  73.0019897 111.4738170  56.6584268  72.4858946 110.6896626  56.4714196
  73.8859846 111.1456886  56.8230787  70.6630624 105.2179185  52.6180080
  70.4655445 104.9094273  53.5023412  71.2730330 105.9440824  52.7478010
  62.8751657 111.4773155  42.5908074  61.9683112 111.1806268  42.6670787
  63.1527638 111.1802974  41.7242360  64.4913722 106.0210045  48.7452315
  63.6814451 105.6757130  49.1207561  65.1798139 105.7117589  49.3339927
  66.4204271 105.0988092  50.3676612  66.9735309 105.5183545  51.0266635
  66.6574357 104.1723840  50.4099568  62.4437370 111.0875166  66.1479376
  62.3434097 112.0369523  66.0791467  62.2258912 110.7593405  65.2755446
  61.6450441 108.3360091  42.7320053  62.5069605 108.6614989  42.9915870
  61.8300785 107.5491587  42.2193119  69.7983078 107.2088617  49.8755276
  69.2181747 107.8673421  49.4933328  69.5319010 106.3865962  49.4642693
  68.2486644 106.6093675  52.0776596  68.7486422 106.7210209  51.2690915
  68.8922252 106.3054728  52.7177405  68.5807956 109.3688708  48.9311624
  67.6933811 109.6538358  48.7131819  68.9961945 109.2082471  48.0838901
  71.9322492 109.3935229  52.6465963  72.7082882 109.8831681  52.9190580
  71.2070626 109.8193283  53.1037833  74.3695050 110.1062848  53.7039904
  74.9639541 109.8658584  52.9933212  74.4421634 109.3869978  54.3313440
  72.3653785 110.6732975  49.9712034  72.1090720 110.2729611  50.8020241
  71.7406653 111.3876769  49.8462173  62.5979884 105.5756134  46.0199762
  62.5858554 106.5197974  46.1768033  63.4903306 105.3926279  45.7259223
  66.4132004 102.1698910  50.2745699  65.6464399 101.6157397  50.4202381
  66.8242709 102.2420779  51.1359850  58.4173765 108.4583706  64.3650880
  59.2805226 108.1020511  64.5754204  57.8439175 108.1197601  65.0526284
  13.2259616  15.1196179  41.8958588  13.8638026  15.0002926  41.1921928
  13.1080459  16.0677023  41.9546540  10.0349322  15.0723607  41.8320112
   9.6967834  14.9564672  40.9440647  10.9039090  14.6714772  41.8121118
   5.8936138  16.9259084  37.8217003   5.3301003  16.8349021  37.0533291
   5.7788533  16.1058988  38.3019496  10.5169105  16.2258459  47.7906318
  10.5057746  15.8311257  46.9186821  10.6789745  15.4924532  48.3840089
   3.4400570  18.4210275  40.6601224   4.2321862  18.0801100  40.2447523
   3.6797220  18.5305250  41.5803377  11.4735697  20.5930051  33.1331468
  10.8223676  21.1784132  32.7465482  12.2680059  21.1236246  33.1926506
   5.3991324  17.6819188  33.5318602   6.1722200  17.1348176  33.3931478
   5.7516723  18.5463438  33.7433064   7.2376366  19.0095571  46.7385502
   6.9466232  19.9141202  46.6232168   7.8733351  19.0512098  47.4529571
   8.1632573  16.3872419  43.3286861   8.7596145  16.1628442  42.6143824
   8.2207545  15.6457165  43.9312309  12.7800884  12.8447633  38.9711796
  13.5663974  12.4267056  38.6202213  13.0439589  13.7493725  39.1393444
  12.9510962  18.2820483  33.6700452  12.3156795  18.3555110  34.3821357
  12.6208368  18.8714082  32.9919532  18.1809312  12.7822866  39.8744774
  18.9134484  12.2122083  40.1082604  17.4248667  12.3944467  40.3151280
   7.4553890  15.7439961  33.3661427   7.3390148  15.0684864  34.0342512
   7.5656150  15.2572334  32.5493580   9.7985431  15.2050108  37.0708117
   9.4343639  14.6780729  37.7821038  10.6552547  14.8148577  36.8974602
  15.7034732   6.4944440  44.3339383  15.3718057   7.3639851  44.1100598
  15.1080345   6.1780724  45.0133413  12.1966251  18.6956986  43.7335295
  11.8966975  19.5982025  43.6251103  11.8517311  18.4289169  44.5856448
   5.6478733  15.1470783  39.7672000   4.7229229  15.0146997  39.9749692
   5.8963146  15.9265002  40.2641942  15.5963395  11.2139526  41.4132733
  14.6880273  11.1454935  41.1191494  15.5450991  11.6911471  42.2414558
   9.4180139  12.6897665  33.0516132   9.2979764  13.1354716  33.8901612
   8.7232728  13.0382982  32.4929670   3.0087544  14.7904057  40.6015789
   3.1379925  15.0438536  41.5155201   2.3284995  15.3831765  40.2820444
   7.1787031  25.4601307  36.7006263   7.1011061  26.4109132  36.7794744
   6.5748675  25.1147179  37.3581189   9.6704261  12.6329172  49.3567630
   8.8937595  13.1923092  49.3470495  10.3094824  13.1185955  49.8782500
  17.4625042   9.4155965  43.1910607  16.8199422   9.7088498  42.5450401
  16.9579970   9.3008885  43.9963803  15.1165205  13.1619138  33.8796466
  16.0283061  13.3946525  33.7044163  14.6074852  13.7456182  33.3171545
   7.9250633  15.4414625  48.9185597   8.6665318  15.9799669  48.6420421
   7.2187619  16.0680914  49.0757149  13.4005973  17.5843766  47.5157759
  13.8089329  17.1426176  46.7712391  12.6783234  17.0096393  47.7691951
   9.7537043  12.5216373  44.8891315  10.5998238  12.9455786  45.0325964
   9.6935681  11.8649997  45.5829879  13.7234788  18.1444956  41.2710047
  13.0943650  18.3090671  40.5686115  13.3360450  18.5586566  42.0421011
  17.6024020  19.0799394  38.6254411  16.9175058  19.4598296  38.0751444
  17.6867869  19.6894721  39.3586359  12.9036488  10.1820741  46.5472489
  12.6597420  10.9362801  46.0106765  13.1796419  10.5606089  47.3819736
  14.8574951  16.7259353  45.2249755  15.0691846  17.3691113  44.5484136
  14.8104699  15.8921670  44.7571685  12.4601180   9.3377174  42.1286327
  11.5985659   9.6358428  42.4203064  12.4863615   9.5547573  41.1967359
   9.2762749  17.8819365  38.5360133   9.7401095  18.1607068  37.7464755
   9.0119548  16.9802809  38.3533223   6.1686831  17.4290846  41.4739896
   6.7388188  17.8578114  40.8357380   6.7594942  17.1473431  42.1724081
   8.2131636  14.0042517  35.3449698   8.9155679  14.4563561  35.8123624
   7.8812264  13.3626336  35.9729591   6.6611997  12.5954274  49.7200907
   6.0310658  13.2770554  49.9536304   6.5548085  12.4837355  48.7754045
  15.9720779  19.6031309  43.3972112  16.7938223  19.2011496  43.1154794
  15.9683182  19.4999543  44.3488228   9.7377382  19.1515352  45.5532823
   9.8021815  19.6135759  46.3890994   9.0288306  18.5212717  45.6815132
  24.0626772  15.9470057  39.7457084  23.3090480  15.3777455  39.5901088
  24.1974313  15.9132722  40.6927718   9.4525400  20.8183460  35.4211803
   9.3171075  21.6634995  35.8496651   9.9935213  21.0202737  34.6577737
   2.9054798  18.3358898  35.9939728   3.4179318  19.1302148  36.1445293
   3.5577510  17.6385188  35.9273329   4.7149682  21.4524654  38.0762481
   4.8916311  22.3742619  37.8883465   5.5106516  21.1383073  38.5056861
  11.0793877  21.4407026  49.5512145  10.6357731  20.6543405  49.2333049
  11.7411090  21.6286177  48.8856036   5.8380998  22.9702828  44.0772823
   6.3888423  22.8419891  43.3049817   4.9992474  23.2697717  43.7267716
  13.1775115  21.7209826  47.5793546  13.1593590  22.5418707  47.0873815
  14.0995035  21.5963901  47.8043687   9.6348169  19.2353955  48.4217055
  10.1676506  18.4742244  48.1916363   9.1062250  18.9427607  49.1641209
   0.8703714  16.6647552  36.7699298   1.7078936  17.0744560  36.5533006
   1.0481982  15.7246994  36.7399492  12.7668146  14.3322633  32.4583131
  12.2514770  15.1027237  32.6971519  12.4945455  13.6587769  33.0816193
  17.7402421  17.0854987  34.3936305  16.9631863  16.7466147  33.9491467
  18.4193902  17.0907610  33.7191270  12.5554450  12.2049725  34.2842913
  12.2504585  12.5195874  35.1353056  13.5084892  12.2831144  34.3270246
  11.0000881  18.3639948  35.9335867  10.4722243  17.6292708  35.6209104
  10.4988384  19.1414624  35.6875835  15.9793727  16.5588968  41.0502913
  15.3217402  17.2488230  41.1383042  16.7834127  16.9485400  41.3936899
  14.7899186  14.9133341  39.1006855  15.3031068  15.5463333  39.6028564
  15.4400410  14.3134537  38.7350215   9.1453482  16.1820158  28.9370840
   8.2380543  15.9509412  29.1361989   9.6424514  15.3857777  29.1244821
  12.0521561  24.8917665  31.8567526  11.3783259  25.1949362  32.4652484
  12.4387382  25.6946746  31.5072983  11.2680017  12.3882797  41.3465195
  10.3502579  12.6097744  41.1886883  11.6840161  12.4629107  40.4876903
  12.0515065  13.7874212  36.4767875  12.7986884  14.2995610  36.1674997
  12.3206654  13.4658265  37.3372269  10.3241715  16.2832753  33.4594830
   9.4152934  15.9991786  33.5567299  10.3536799  16.7031832  32.5998137
  15.5560982  19.8939343  37.2285997  15.1023310  19.0530252  37.2851188
  14.9254949  20.5300741  37.5660777  14.4993902  10.8231329  38.4586665
  13.7616659  10.3108715  38.7896907  14.7520676  10.3831710  37.6469942
  13.9993922  21.7315839  38.1635815  14.2916896  22.2920896  37.4448181
  14.5092542  22.0244400  38.9188975   8.8726609  13.8961374  39.5604625
   8.9275219  12.9435210  39.4847102   8.0617811  14.0520813  40.0445923
  10.0217803  17.8241497  30.7982908   9.5837233  17.1077356  30.3388546
  10.7628244  18.0517612  30.2368000   6.8118969  12.5138433  37.3195004
   5.9986835  12.8132604  37.7260196   7.3077963  12.1194122  38.0369486
   8.9627547  22.5096190  39.2529269   8.9203726  22.7357037  38.3237801
   9.8790246  22.2759565  39.4015070  12.4093181  12.9780258  46.1509898
  12.7642568  13.2051731  47.0104364  13.0565312  13.3098635  45.5287153
  18.1390918  16.0998694  36.8559227  18.0008816  16.2900290  35.9280416
  17.7827136  16.8618077  37.3127278  18.1660297  18.1675221  41.8670498
  18.5996804  18.0750510  42.7153552  18.8791878  18.1432721  41.2290514
   7.0793348  19.3859219  39.0491231   7.8733946  18.8909539  38.8473806
   6.3685040  18.8577082  38.6858937  11.8988192  21.7677315  43.4003599
  11.9525214  22.3368251  44.1681315  11.0302974  21.9379200  43.0357636
  19.0275847  18.2098921  44.4003384  19.2211737  19.1144732  44.6462659
  18.9276465  17.7506340  45.2341969  14.0890956  18.3605664  49.9744264
  13.9376462  18.1316216  49.0574348  14.0795635  19.3176266  49.9875609
  10.8576292  15.9337577  44.9590531  11.7868352  16.0848737  44.7859498
  10.4367322  16.0221598  44.1039177   9.6564624  19.9588241  42.7289068
   9.5175709  19.5907026  43.6015007   8.8679220  20.4735881  42.5573026
  10.2512776  25.0597338  34.0714605  10.4264531  24.5885381  34.8860228
   9.5645564  25.6863104  34.2995866  11.2069839  19.3369844  40.1177906
  10.8719671  19.2970614  41.0135556  10.7073785  18.6714560  39.6448316
   5.1814083  14.7437474  45.6430487   5.0433881  14.0117713  46.2442026
   6.0919006  14.6546374  45.3614675  14.1429030  16.6825878  30.3914966
  13.5258201  15.9572707  30.2948019  13.6745519  17.4435239  30.0482040
   7.8096383  14.4557433  45.1314167   8.5196002  13.8150626  45.0900785
   7.7665692  14.7070328  46.0540348  15.7983162  21.3924787  48.0520746
  15.7395708  20.7084007  47.3851329  16.2002681  22.1343777  47.6001372
   4.8173861  28.2086701  40.8454465   5.0570459  28.8405225  41.5233484
   3.9743057  27.8574741  41.1319824  15.8000569  19.3564371  46.2834726
  14.9127348  19.0190292  46.4061125  16.3699120  18.6247402  46.5203491
   9.3301723  24.0165823  43.2495969   9.2571894  24.8220795  43.7615274
   8.8879116  24.2157789  42.4243991   9.1191502  23.2537593  36.7598791
   8.3359024  23.7959273  36.8537015   9.8184248  23.7711573  37.1593032
  12.4288153   9.0632222  39.4032996  12.9256852   8.3102185  39.0834066
  11.6575134   9.0996539  38.8376205  20.2817910  14.7672588  41.0451288
  20.2707786  15.6497303  40.6745221  19.4135289  14.4144139  40.8505825
  11.7900406  23.9152657  45.4054128  12.5028379  24.5500122  45.3330029
  11.2990435  24.0116523  44.5894130  13.5117933  17.8203910  36.9771419
  12.5774212  17.9405372  36.8076124  13.6894602  16.9176376  36.7131429
   9.0123121  11.2049605  39.1304681   8.6420909  10.6520646  39.8185586
   9.5082214  10.6007739  38.5779681  16.8990485  13.6621229  37.5121454
  17.3650937  14.4949221  37.4381756  17.3497985  13.1966211  38.2166712
   6.8412320  21.6647101  46.2259699   7.5421779  22.2983583  46.3789093
   6.3707435  22.0061832  45.4655338  14.9666716  20.0065050  34.5107606
  15.2426560  19.8921645  35.4201480  14.0971214  19.6082535  34.4719779
  14.6413606  14.2191708  44.0512249  13.9885056  14.4667615  43.3964702
  15.0193986  13.4055846  43.7174726  11.6020780  24.2551401  38.1540419
  11.7843174  23.4373057  38.6168172  12.4253766  24.4719093  37.7165309
  11.9362945  23.1819586  35.4155468  12.4650712  22.6712041  34.8025630
  12.1991165  22.8662116  36.2801001  10.6901179  14.9611519  50.5378286
  10.0141816  14.8605648  51.2080661  11.5128813  14.8050733  51.0014283
   2.4380038  21.1983456  43.1590801   3.0233475  20.4527143  43.2918705
   2.2404876  21.5087412  44.0427465   5.2918693  24.2334703  38.1753244
   4.6229068  24.7180831  37.6917284   5.1531563  24.4803923  39.0896622
   9.4323962  26.2678446  44.7735902   9.9842270  26.4310068  45.5384987
   9.7730155  26.8582884  44.1015927  14.2834836  21.0939704  50.6284556
  14.8274740  21.7069662  50.1339511  13.7021681  21.6519282  51.1451569
  12.5692349  24.2160422  41.7599584  12.4443488  23.4150162  41.2510530
  13.2271440  24.7106615  41.2713554  14.6327257  22.0169442  43.3879134
  13.6857593  21.8974793  43.3157461  14.9810031  21.1291940  43.4705396
  11.6373691  21.8122158  39.5883487  11.4898653  20.8838866  39.7691057
  12.4627184  21.8342249  39.1040562  15.2407813  22.6350717  40.6748359
  16.1654360  22.4293578  40.5372810  15.0723116  22.3867118  41.5837701
  11.6335205   9.6659996  34.5815604  11.8498819  10.5484634  34.2804432
  11.1529272   9.2746209  33.8521246   6.3734426  12.6245709  41.1586348
   6.2279007  12.9386012  42.0510630   5.8959630  13.2430609  40.6057247
  10.0856940  10.0485597  43.2520365   9.8274718  10.9702668  43.2504696
   9.5541980   9.6516032  43.9420829  15.0303129  23.1536384  36.0310451
  15.2040006  22.5882807  35.2784303  15.5232020  23.9537279  35.8489941
  20.8842520  15.9172807  37.6500750  21.3273666  15.1680133  37.2519874
  20.0069030  15.9082944  37.2674482  16.0178301  22.4703149  33.1307349
  16.7129206  23.0909842  33.3494664  16.3601451  21.6198500  33.4059727
  17.9169724  19.9202854  34.6594680  18.4421048  20.2590127  33.9344000
  17.8292077  18.9849870  34.4757814   9.5789773  23.8336928  46.7884556
   9.8876900  23.5886075  47.6607256  10.3765255  24.0383567  46.3003427
   9.6010385  25.9874838  39.0189933   9.1615375  25.4951216  39.7122790
  10.3518502  25.4447805  38.7782008   2.0802724  22.1786379  39.0214561
   2.9060744  21.8790150  38.6413205   1.7296776  21.4094001  39.4704350
   7.0484257  21.5312847  41.0912235   6.4264267  20.8683552  40.7914462
   7.7189124  21.5573979  40.4085882  17.6063630  20.5535758  49.9645878
  16.8159174  20.5359897  49.4250377  17.3696985  21.0924052  50.7194914
  17.7261505  17.4028224  47.2778606  17.7759510  17.2378232  48.2194129
  17.6175429  16.5355483  46.8876487   6.6097764  20.0816770  34.5670695
   6.7585885  20.7652235  33.9137368   7.4164208  20.0621860  35.0820151
  15.0165268  13.3859152  48.5937913  15.9175131  13.2465617  48.3021911
  15.0913242  13.5513607  49.5336090   9.3508073  10.7626007  47.4391099
   8.4811383  11.0559573  47.1673688   9.5867554  11.3466452  48.1598363
  19.2279702  19.8225166  47.5220628  18.9364511  20.1855146  48.3584089
  18.6151834  19.1092174  47.3433960  20.4275385  17.3878046  40.0423198
  21.2622276  17.8267850  40.2060758  20.5634513  16.9116699  39.2231444
  17.4766891  14.9457781  45.9900686  17.9521012  15.1385427  45.1819537
  16.5532456  15.0016966  45.7444069   4.3650397  16.1081948  35.5731764
   4.1196439  15.2044278  35.7711974   4.5346312  16.1099098  34.6311242
  10.1093170  22.5764901  32.0382443   9.5367137  23.1955088  31.5852914
  10.6825963  23.1264262  32.5722365  16.1768560  11.8223541  44.2228991
  17.1285982  11.9221638  44.2441215  16.0072010  11.0301809  44.7327076
  14.1982939   8.9079124  44.4088392  13.6032871   9.1884137  43.7134881
  13.9132636   9.3973025  45.1805133  13.3290429  22.8602051  33.1691025
  14.2621103  22.7947612  33.3723900  13.2413642  23.6958318  32.7105558
  15.9578446  22.1767921  30.1294972  15.8792078  21.8427785  31.0230730
  16.7788113  22.6689689  30.1286445  18.6556637  15.0429660  43.3371291
  18.6232957  14.1045661  43.5230975  19.2657261  15.1213697  42.6037116
  10.4939968  13.9125713  29.3798495  11.4399073  13.7831921  29.4486913
  10.1154213  13.1740375  29.8567923  18.8051126  11.8340704  43.3829574
  18.2890174  11.0499160  43.1959503  19.6891074  11.5059420  43.5476094
  16.4661853   5.5781719  39.3425387  16.2686674   5.2696808  40.2268719
  17.0761558   6.3043358  39.4723317  24.4733187  16.1045667  42.4777328
  25.2036576  15.8430955  43.0385031  23.8640133  15.3674389  42.5179396
  22.5548484  14.2453530  43.0751779  21.8281648  14.1109495  42.4668271
  22.1395771  14.5530358  43.8808497  10.3778661  17.9643459  50.8399152
  11.2981670  18.1422058  51.0339199  10.3428244  17.0199505  50.6878851
   3.3740733  15.8744494  43.4821933   3.5926743  16.8061602  43.5009967
   3.7866507  15.5152469  44.2676737   8.2468599  11.4477700  52.8724682
   8.1465325  12.3972057  52.8036773   8.0290141  11.1195939  52.0000752
  15.6014306   7.5691151  36.6000583  15.0212976   8.2275955  36.2178635
  15.3350239   6.7468496  36.1888000  14.0517873   6.9696209  38.8021903
  14.5517651   7.0812744  37.9936222  14.6953481   6.6657262  39.4422711
   8.1099869  14.8774839  51.6889744   7.6266950  15.6775199  51.8953633
   8.1960808  14.8882784  50.7357188   1.3785828  16.7103218  39.6111563
   1.3556516  16.8090906  38.6593446   1.6886465  17.5568369  39.9328729
   4.0373206  18.7679373  43.7258178   4.9916460  18.7363316  43.6588109
   3.8385730  18.3069997  44.5408404   4.6272588  17.3380489  46.2928975
   5.4465477  17.8324568  46.3163813   4.9009396  16.4212458  46.2646543
  14.3839184   9.7291242  35.6556931  13.4965039  10.0140892  35.4377126
  14.7993174   9.5685005  34.8084208  17.7353721   9.7537763  39.3711270
  18.5114111  10.2434215  39.6435887  17.0101855  10.1795817  39.8283140
  20.1726279  10.4665382  40.4285211  20.7670770  10.2261118  39.7178519
  20.2452863   9.7472513  41.0558747   2.3923435  24.3098993  40.7428375
   2.2577903  23.5499394  40.1766374   1.9755497  25.0339893  40.2757164
  13.5282398  19.4935916  29.7504951  14.2318248  19.6985919  30.3662606
  12.8045047  20.0612678  30.0154034  14.3580208  15.2445778  35.8707221
  14.3015410  15.7014329  35.0314853  14.9108551  14.4836462  35.6930064
  18.1685014  11.0335510  36.6957340  17.9121948  10.6332145  37.5265548
  17.5437882  11.7479303  36.5707480  22.4797352  13.7731583  39.2028632
  21.9196910  13.8424772  39.9760194  21.8740855  13.5972567  38.4828128
   5.5492561  25.2068310  40.9546818   5.4324945  26.1513742  40.8525508
   4.7285007  24.9041871  41.3432617  15.4369095  19.9318446  31.8003411
  16.2714699  19.4999644  31.6180886  15.2753438  19.7600459  32.7280305
  15.0914988  16.4350559  33.1659750  15.0363791  16.2694830  32.2248194
  14.4661043  17.1426592  33.3221940  12.4060895  18.7399471  52.4913313
  13.2752054  18.9140123  52.1299948  11.9267646  19.5593888  52.3689042
   6.5747075  25.8596572  44.1702747   7.4774322  25.8920182  44.4869241
   6.3484445  24.9297023  44.1849082   8.3300677  24.6127558  40.8312825
   7.3796308  24.6129420  40.7177197   8.6333163  23.8660293  40.3148860
  24.0653370  30.4488097  41.8958588  24.7031780  30.3294844  41.1921928
  23.9474213  31.3968941  41.9546540  20.8743077  30.4015525  41.8320112
  20.5361588  30.2856590  40.9440647  21.7432845  30.0006690  41.8121118
  16.7329892  32.2551001  37.8217003  16.1694758  32.1640938  37.0533291
  16.6182287  31.4350906  38.3019496  21.3562860  31.5550377  47.7906318
  21.3451500  31.1603175  46.9186821  21.5183499  30.8216449  48.3840089
  14.2794324  33.7502193  40.6601224  15.0715616  33.4093018  40.2447523
  14.5190975  33.8597168  41.5803377  22.3129451  35.9221969  33.1331468
  21.6617431  36.5076049  32.7465482  23.1073814  36.4528164  33.1926506
  16.2385078  33.0111106  33.5318602  17.0115954  32.4640093  33.3931478
  16.5910477  33.8755355  33.7433064  18.0770121  34.3387488  46.7385502
  17.7859987  35.2433119  46.6232168  18.7127105  34.3804016  47.4529571
  19.0026328  31.7164337  43.3286861  19.5989900  31.4920359  42.6143824
  19.0601299  30.9749082  43.9312309  18.5751356  29.1703772  31.1637052
  18.8276877  28.6485294  30.4020515  17.6375915  29.0069918  31.2663736
  23.6194639  28.1739551  38.9711796  24.4057728  27.7558974  38.6202213
  23.8833343  29.0785643  39.1393444  23.7904716  33.6112401  33.6700452
  23.1550549  33.6847027  34.3821357  23.4602123  34.2006000  32.9919532
  29.0203066  28.1114784  39.8744774  29.7528238  27.5414001  40.1082604
  28.2642422  27.7236384  40.3151280  18.2947645  31.0731878  33.3661427
  18.1783903  30.3976782  34.0342512  18.4049905  30.5864252  32.5493580
  20.6379186  30.5342025  37.0708117  20.2737393  30.0072646  37.7821038
  21.4946302  30.1440494  36.8974602  26.5428486  21.8236358  44.3339383
  26.2111811  22.6931769  44.1100598  25.9474100  21.5072642  45.0133413
  20.2784673  25.5631925  32.0669465  20.4459075  26.4312161  32.4339936
  20.0881842  25.7259207  31.1430754  23.0360006  34.0248904  43.7335295
  22.7360729  34.9273943  43.6251103  22.6911065  33.7581087  44.5856448
  16.4872487  30.4762701  39.7672000  15.5622984  30.3438915  39.9749692
  16.7356901  31.2556920  40.2641942  26.4357150  26.5431444  41.4132733
  25.5274027  26.4746853  41.1191494  26.3844746  27.0203389  42.2414558
  20.2573894  28.0189582  33.0516132  20.1373519  28.4646633  33.8901612
  19.5626482  28.3674900  32.4929670  13.8481298  30.1195974  40.6015789
  13.9773680  30.3730453  41.5155201  13.1678750  30.7123682  40.2820444
  18.0180786  40.7893224  36.7006263  17.9404815  41.7401049  36.7794744
  17.4142429  40.4439097  37.3581189  20.5098015  27.9621090  49.3567630
  19.7331350  28.5215010  49.3470495  21.1488579  28.4477873  49.8782500
  28.3018796  24.7447882  43.1910607  27.6593176  25.0380416  42.5450401
  27.7973725  24.6300803  43.9963803  25.9558960  28.4911056  33.8796466
  26.8676816  28.7238442  33.7044163  25.4468607  29.0748100  33.3171545
  18.7644388  30.7706543  48.9185597  19.5059072  31.3091587  48.6420421
  18.0581373  31.3972832  49.0757149  24.2399727  32.9135683  47.5157759
  24.6483083  32.4718094  46.7712391  23.5176989  32.3388311  47.7691951
  20.5930797  27.8508290  44.8891315  21.4391993  28.2747704  45.0325964
  20.5329435  27.1941915  45.5829879  24.5628542  33.4736874  41.2710047
  23.9337405  33.6382588  40.5686115  24.1754204  33.8878484  42.0421011
  28.4417774  34.4091312  38.6254411  27.7568812  34.7890213  38.0751444
  28.5261623  35.0186639  39.3586359  23.7430243  25.5112659  46.5472489
  23.4991175  26.2654719  46.0106765  24.0190173  25.8898006  47.3819736
  25.6968706  32.0551271  45.2249755  25.9085601  32.6983031  44.5484136
  25.6498454  31.2213588  44.7571685  23.2994935  24.6669092  42.1286327
  22.4379414  24.9650345  42.4203064  23.3257369  24.8839491  41.1967359
  20.1156504  33.2111282  38.5360133  20.5794850  33.4898985  37.7464755
  19.8513302  32.3094727  38.3533223  17.0080585  32.7582764  41.4739896
  17.5781942  33.1870032  40.8357380  17.5988697  32.4765348  42.1724081
  19.0525390  29.3334435  35.3449698  19.7549433  29.7855478  35.8123624
  18.7206019  28.6918253  35.9729591  17.5005752  27.9246191  49.7200907
  16.8704412  28.6062472  49.9536304  17.3941839  27.8129273  48.7754045
  12.7950724  27.5917987  40.6466831  12.0049778  27.8475516  40.1706942
  13.2861971  28.4066325  40.7518872  26.8114534  34.9323226  43.3972112
  27.6331977  34.5303414  43.1154794  26.8076936  34.8291461  44.3488228
  14.7465469  27.9562566  37.6050308  13.9496633  28.0681261  38.1233804
  14.5191062  28.2949219  36.7391198  20.5771137  34.4807270  45.5532823
  20.6415570  34.9427677  46.3890994  19.8682061  33.8504635  45.6815132
  11.0788427  27.8448478  43.0781822  11.3296465  28.7295488  43.3439398
  11.6147975  27.6653079  42.3056914  34.9020527  31.2761975  39.7457084
  34.1484235  30.7069373  39.5901088  35.0368068  31.2424639  40.6927718
  20.2919155  36.1475377  35.4211803  20.1564829  36.9926913  35.8496651
  20.8328967  36.3494655  34.6577737  16.7786494  22.2266957  52.0826158
  16.3853440  21.6733156  52.7573802  17.5952635  22.5377536  52.4732676
  13.7448552  33.6650815  35.9939728  14.2573073  34.4594065  36.1445293
  14.3971265  32.9677106  35.9273329  15.5543437  36.7816572  38.0762481
  15.7310065  37.7034536  37.8883465  16.3500270  36.4674991  38.5056861
  19.6954455  23.6424836  49.6746415  20.4364169  24.2431989  49.5950877
  19.9272378  22.9002474  49.1164457  14.8395793  28.8281203  47.9524644
  14.7249308  27.9266461  48.2531743  13.9840311  29.0744900  47.6009461
  21.9187631  36.7698944  49.5512145  21.4751485  35.9835322  49.2333049
  22.5804845  36.9578094  48.8856036  16.6774752  38.2994745  44.0772823
  17.2282177  38.1711809  43.3049817  15.8386228  38.5989634  43.7267716
  24.0168869  37.0501744  47.5793546  23.9987344  37.8710625  47.0873815
  24.9388789  36.9255819  47.8043687  20.4741923  34.5645873  48.4217055
  21.0070260  33.8034161  48.1916363  19.9456004  34.2719525  49.1641209
  23.6411618  19.6705939  43.9510696  23.2975888  20.5607581  43.8749807
  24.0090581  19.4807597  43.0880281  11.7097469  31.9939470  36.7699298
  12.5472691  32.4036478  36.5533006  11.8875737  31.0538912  36.7399492
  23.6061901  29.6614550  32.4583131  23.0908524  30.4319155  32.6971519
  23.3339209  28.9879686  33.0816193  21.1909012  24.5064251  37.5168370
  20.3350608  24.1171101  37.3374009  21.6035964  24.5856212  36.6568155
  22.7208159  22.0410594  41.9159930  22.2172954  22.0040729  41.1027735
  23.0138765  22.9503337  41.9756586  18.9651044  22.1249324  40.9226111
  19.8304041  21.9292133  40.5632001  19.0328553  21.8959676  41.8495468
  28.5796175  32.4146905  34.3936305  27.8025618  32.0758064  33.9491467
  29.2587656  32.4199528  33.7191270  23.3948204  27.5341642  34.2842913
  23.0898340  27.8487791  35.1353056  24.3478646  27.6123062  34.3270246
  21.8394636  33.6931866  35.9335867  21.3115998  32.9584625  35.6209104
  21.3382139  34.4706542  35.6875835  26.8187482  31.8880886  41.0502913
  26.1611156  32.5780147  41.1383042  27.6227881  32.2777318  41.3936899
  16.5713364  24.3551532  38.2942478  17.1457115  24.1326713  37.5615671
  17.1584346  24.4240226  39.0471079  25.6292941  30.2425259  39.1006855
  26.1424823  30.8755251  39.6028564  26.2794165  29.6426454  38.7350215
  16.8982951  26.3855993  32.3138363  16.0620263  26.7230679  32.6347638
  16.7587720  26.2504973  31.3765500  18.8736031  21.2292781  37.0217548
  18.2200444  20.9141798  36.3974162  18.8316505  20.6068521  37.7477370
  19.9847236  31.5112076  28.9370840  19.0774298  31.2801329  29.1361989
  20.4818268  30.7149695  29.1244821  22.8915315  40.2209583  31.8567526
  22.2177014  40.5241280  32.4652484  23.2781137  41.0238663  31.5072983
  22.1073772  27.7174714  41.3465195  21.1896333  27.9389661  41.1886883
  22.5233915  27.7921025  40.4876903  22.8908819  29.1166130  36.4767875
  23.6380638  29.6287527  36.1674997  23.1600409  28.7950183  37.3372269
  21.1635470  31.6124671  33.4594830  20.2546689  31.3283704  33.5567299
  21.1930553  32.0323749  32.5998137  26.3954737  35.2231260  37.2285997
  25.9417064  34.3822170  37.2851188  25.7648704  35.8592659  37.5660777
  25.3387657  26.1523246  38.4586665  24.6010413  25.6400632  38.7896907
  25.5914430  25.7123628  37.6469942  24.8387676  37.0607757  38.1635815
  25.1310651  37.6212814  37.4448181  25.3486297  37.3536318  38.9188975
  25.4399284  18.9299498  39.0528434  25.7458161  18.0696862  38.7654349
  26.1651889  19.5217118  38.8527428  11.7323640  29.3330185  37.4410032
  11.5348040  28.7399546  36.7161098  11.1770304  29.0282395  38.1585971
  19.7120364  29.2253291  39.5604625  19.7668973  28.2727128  39.4847102
  18.9011566  29.3812730  40.0445923  20.8611557  33.1533414  30.7982908
  20.4230987  32.4369273  30.3388546  21.6021998  33.3809529  30.2368000
  17.6512724  27.8430351  37.3195004  16.8380589  28.1424522  37.7260196
  18.1471718  27.4486040  38.0369486  19.8021301  37.8388108  39.2529269
  19.7597480  38.0648954  38.3237801  20.7184000  37.6051483  39.4015070
  23.2486935  28.3072176  46.1509898  23.6036323  28.5343649  47.0104364
  23.8959066  28.6390552  45.5287153  28.9784672  31.4290611  36.8559227
  28.8402571  31.6192207  35.9280416  28.6220891  32.1909994  37.3127278
  17.1426798  25.4148707  42.9356239  17.7826178  25.2737466  42.2379202
  16.3104329  25.1283220  42.5594841  29.0054052  33.4967138  41.8670498
  29.4390558  33.4042428  42.7153552  29.7185632  33.4724639  41.2290514
  17.9187102  34.7151137  39.0491231  18.7127701  34.2201457  38.8473806
  17.2078795  34.1869000  38.6858937  22.7381947  37.0969233  43.4003599
  22.7918969  37.6660169  44.1681315  21.8696728  37.2671118  43.0357636
  14.2269866  28.8594219  35.1250984  13.2967454  28.7978674  35.3420946
  14.3227338  28.3370172  34.3287625  14.1455415  25.3849032  37.7129226
  14.4062232  26.2994365  37.6038386  14.9672587  24.9173474  37.8625839
  15.6180340  26.7986789  44.8828050  16.2903393  26.5904151  44.2340699
  14.7910127  26.6008875  44.4433283  29.8669601  33.5390839  44.4003384
  30.0605491  34.4436650  44.6462659  29.7670219  33.0798258  45.2341969
  21.5205912  23.4248730  46.8993711  20.8733827  24.1238679  46.8058188
  22.2906927  23.8584874  47.2669959  24.9284710  33.6897582  49.9744264
  24.7770216  33.4608134  49.0574348  24.9189389  34.6468183  49.9875609
  21.6970046  31.2629495  44.9590531  22.6262106  31.4140654  44.7859498
  21.2761076  31.3513515  44.1039177  20.4958378  35.2880159  42.7289068
  20.3569464  34.9198943  43.6015007  19.7072974  35.8027798  42.5573026
  21.0906530  40.3889255  34.0714605  21.2658286  39.9177299  34.8860228
  20.4039318  41.0155022  34.2995866  22.0463593  34.6661762  40.1177906
  21.7113426  34.6262532  41.0135556  21.5467539  34.0006478  39.6448316
  16.0207837  30.0729392  45.6430487  15.8827635  29.3409631  46.2442026
  16.9312761  29.9838292  45.3614675  24.9822785  32.0117796  30.3914966
  24.3651956  31.2864624  30.2948019  24.5139273  32.7727156  30.0482040
  18.6490138  29.7849351  45.1314167  19.3589756  29.1442543  45.0900785
  18.6059446  30.0362246  46.0540348  26.6376917  36.7216704  48.0520746
  26.5789463  36.0375925  47.3851329  27.0396435  37.4635694  47.6001372
  17.3619072  26.7714569  46.9509807  16.8256429  26.3205307  47.6031403
  16.7735780  26.9060478  46.2080271  15.6567615  43.5378618  40.8454465
  15.8964214  44.1697142  41.5233484  14.8136812  43.1866658  41.1319824
  16.7721331  26.2303220  29.5136270  15.8950797  26.1092021  29.1498517
  17.2479084  25.4389299  29.2615159  26.6394324  34.6856288  46.2834726
  25.7521103  34.3482210  46.4061125  27.2092875  33.9539320  46.5203491
   8.2923471  31.0180380  39.6077777   8.9794511  30.7042110  39.0198793
   8.1371600  31.9221745  39.3345029  13.0958193  25.9070577  44.0362801
  13.0116382  25.2996246  43.3013211  12.2740900  26.3979595  44.0372297
  20.1695477  39.3457741  43.2495969  20.0965649  40.1512712  43.7615274
  19.7272870  39.5449707  42.4243991  19.9585257  38.5829511  36.7598791
  19.1752779  39.1251191  36.8537015  20.6578002  39.1003490  37.1593032
  23.2681907  24.3924140  39.4032996  23.7650607  23.6394102  39.0834066
  22.4968889  24.4288457  38.8376205  31.1211664  30.0964506  41.0451288
  31.1101541  30.9789221  40.6745221  30.2529044  29.7436057  40.8505825
  22.6294161  39.2444575  45.4054128  23.3422133  39.8792040  45.3330029
  22.1384189  39.3408441  44.5894130  24.3511688  33.1495827  36.9771419
  23.4167966  33.2697290  36.8076124  24.5288356  32.2468294  36.7131429
  19.8516876  26.5341523  39.1304681  19.4814663  25.9812564  39.8185586
  20.3475968  25.9299657  38.5779681  27.7384239  28.9913147  37.5121454
  28.2044691  29.8241138  37.4381756  28.1891740  28.5258128  38.2166712
  17.6806074  36.9939018  46.2259699  18.3815534  37.6275501  46.3789093
  17.2101189  37.3353750  45.4655338  25.8060470  35.3356968  34.5107606
  26.0820314  35.2213563  35.4201480  24.9364969  34.9374453  34.4719779
  25.7100902  21.3593734  41.5512355  24.7963982  21.5897961  41.7194562
  26.1394003  21.4432178  42.4026387  25.4807360  29.5483626  44.0512249
  24.8278811  29.7959533  43.3964702  25.8587740  28.7347764  43.7174726
  22.4414534  39.5843319  38.1540419  22.6236929  38.7664975  38.6168172
  23.2647520  39.8011011  37.7165309  22.7756700  38.5111504  35.4155468
  23.3044466  38.0003959  34.8025630  23.0384919  38.1954034  36.2801001
  21.5294933  30.2903437  50.5378286  20.8535570  30.1897566  51.2080661
  22.3522567  30.1342650  51.0014283  13.2773792  36.5275373  43.1590801
  13.8627229  35.7819061  43.2918705  13.0798631  36.8379330  44.0427465
  16.1312448  39.5626621  38.1753244  15.4622823  40.0472748  37.6917284
  15.9925317  39.8095841  39.0896622   7.8691447  29.0980973  41.8795244
   7.9075547  28.5644564  42.6732363   7.3631740  28.5716179  41.2606222
  20.2717716  41.5970364  44.7735902  20.8236024  41.7601986  45.5384987
  20.6123910  42.1874802  44.1015927  15.2482209  23.9445514  45.3757787
  15.3123536  24.8060345  44.9635184  15.1849330  23.3319516  44.6430145
  14.7234482  26.0168646  49.0230821  15.3506521  25.6345724  49.6368345
  13.8662401  25.7982848  49.3886514  25.1228591  36.4231622  50.6284556
  25.6668495  37.0361580  50.1339511  24.5415435  36.9811200  51.1451569
  11.5000025  27.8245076  34.9549176  11.7953466  26.9155754  34.9016230
  10.5988061  27.8032815  34.6330178  23.4086104  39.5452340  41.7599584
  23.2837243  38.7442080  41.2510530  24.0665195  40.0398533  41.2713554
  15.0294272  25.9001072  40.9376724  14.3080857  26.5137040  40.7984198
  15.8187528  26.4358837  40.8593370  25.4721012  37.3461360  43.3879134
  24.5251347  37.2266711  43.3157461  25.8203785  36.4583858  43.4705396
  17.8320585  23.2355499  47.2117376  18.3554987  23.4817795  47.9743685
  17.6132919  24.0675533  46.7920514  13.2287866  25.5059173  35.0788501
  12.9000572  24.6256552  34.8963607  13.5827237  25.4506842  35.9664890
  22.4767445  37.1414076  39.5883487  22.3292408  36.2130783  39.7691057
  23.3020939  37.1634167  39.1040562  16.3429689  25.7932143  35.4463979
  16.6825762  26.3218064  34.7242587  16.7901810  26.1312549  36.2222545
  26.0801567  37.9642635  40.6748359  27.0048115  37.7585496  40.5372810
  25.9116870  37.7159036  41.5837701  19.0373130  24.1769194  44.8967047
  18.6969951  23.3777007  45.2987727  18.3312137  24.4770905  44.3243880
  19.6889602  21.2618506  43.3494370  20.5115671  20.7878984  43.2273260
  19.9327666  22.0408990  43.8493056  18.3297837  24.2906765  33.6457271
  19.0506199  24.6688017  33.1420988  17.7063141  25.0095641  33.7492249
  22.4728960  24.9951914  34.5815604  22.6892574  25.8776551  34.2804432
  21.9923027  24.6038127  33.8521246  17.2128181  27.9537627  41.1586348
  17.0672762  28.2677930  42.0510630  16.7353385  28.5722527  40.6057247
  19.0724564  24.9440175  41.2067238  19.0586133  24.0481268  40.8699536
  19.7896992  24.9510839  41.8405524  20.9250694  25.3777515  43.2520365
  20.6668472  26.2994586  43.2504696  20.3935735  24.9807950  43.9420829
  25.8696883  38.4828302  36.0310451  26.0433761  37.9174725  35.2784303
  26.3625774  39.2829197  35.8489941  11.6873843  30.4942971  44.0974010
  11.1427311  31.2702779  44.2294284  12.5653193  30.8413776  43.9393131
  18.4761460  23.8254555  36.4754808  18.5977371  22.8971201  36.6745696
  18.1863502  23.8393241  35.5633123  21.3452650  21.5109466  39.6121528
  21.3674347  21.5748799  38.6573507  21.7620709  20.6713974  39.8062034
  31.7236274  31.2464725  37.6500750  32.1667420  30.4972050  37.2519874
  30.8462785  31.2374861  37.2674482  26.8572056  37.7995067  33.1307349
  27.5522960  38.4201759  33.3494664  27.1995206  36.9490418  33.4059727
  12.4739865  29.6212867  46.9904166  11.7321601  29.7695503  47.5768797
  12.1532609  29.8821133  46.1270916  28.7563479  35.2494772  34.6594680
  29.2814803  35.5882045  33.9344000  28.6685831  34.3141787  34.4757814
  20.4183528  39.1628846  46.7884556  20.7270654  38.9177992  47.6607256
  21.2159010  39.3675484  46.3003427  20.4404140  41.3166755  39.0189933
  20.0009130  40.8243134  39.7122790  21.1912257  40.7739723  38.7782008
  12.9196479  37.5078296  39.0214561  13.7454498  37.2082068  38.6413205
  12.5690531  36.7385919  39.4704350  17.8878012  36.8604764  41.0912235
  17.2658021  36.1975469  40.7914462  18.5582879  36.8865896  40.4085882
  11.1205084  35.4264623  39.9803495  10.2836992  34.9986797  39.7987496
  11.0928729  35.6197066  40.9174286  17.9602539  25.3386552  50.6844741
  18.0090695  26.2148675  50.3022510  18.5025053  24.7963946  50.1116384
  28.4457385  35.8827676  49.9645878  27.6552929  35.8651815  49.4250377
  28.2090739  36.4215969  50.7194914  28.5655260  32.7320142  47.2778606
  28.6153265  32.5670150  48.2194129  28.4569183  31.8647401  46.8876487
  17.4491519  35.4108688  34.5670695  17.5979639  36.0944152  33.9137368
  18.2557962  35.3913778  35.0820151  25.8559022  28.7151070  48.5937913
  26.7568885  28.5757535  48.3021911  25.9306997  28.8805525  49.5336090
  20.1901828  26.0917925  47.4391099  19.3205137  26.3851491  47.1673688
  20.4261308  26.6758370  48.1598363  30.0673457  35.1517084  47.5220628
  29.7758265  35.5147064  48.3584089  29.4545588  34.4384092  47.3433960
  31.2669139  32.7169963  40.0423198  32.1016031  33.1559767  40.2060758
  31.4028268  32.2408617  39.2231444  28.3160645  30.2749698  45.9900686
  28.7914767  30.4677345  45.1819537  27.3926210  30.3308884  45.7444069
  15.2044152  31.4373865  35.5731764  14.9590194  30.5336195  35.7711974
  15.3740066  31.4391016  34.6311242  22.8940862  22.3097542  44.9556520
  23.4122805  23.0458569  44.6303008  22.5395994  22.6161535  45.7903279
  14.4739799  27.1702223  33.0717926  13.7809044  27.2446578  32.4157962
  14.2291551  26.4062567  33.5939442  23.1453456  18.7297824  40.4757416
  23.4255209  18.0621013  41.1017843  23.9304063  18.9226920  39.9632080
  20.9486924  37.9056818  32.0382443  20.3760891  38.5247005  31.5852914
  21.5219718  38.4556180  32.5722365  27.0162314  27.1515458  44.2228991
  27.9679737  27.2513556  44.2441215  26.8465764  26.3593727  44.7327076
  25.0376694  24.2371042  44.4088392  24.4426626  24.5176054  43.7134881
  24.7526390  24.7264942  45.1805133  24.1684184  38.1893968  33.1691025
  25.1014857  38.1239530  33.3723900  24.0807397  39.0250235  32.7105558
  26.7972201  37.5059839  30.1294972  26.7185832  37.1719702  31.0230730
  27.6181867  37.9981607  30.1286445  29.4950392  30.3721578  43.3371291
  29.4626712  29.4337579  43.5230975  30.1051015  30.4505615  42.6037116
  21.3333723  29.2417631  29.3798495  22.2792827  29.1123839  29.4486913
  20.9547968  28.5032293  29.8567923  29.6444880  27.1632621  43.3829574
  29.1283929  26.3791078  43.1959503  30.5284829  26.8351338  43.5476094
  27.3055607  20.9073637  39.3425387  27.1080428  20.5988725  40.2268719
  27.9155313  21.6335276  39.4723317  35.3126942  31.4337585  42.4777328
  36.0430330  31.1722873  43.0385031  34.7033887  30.6966307  42.5179396
  33.3942239  29.5745447  43.0751779  32.6675402  29.4401412  42.4668271
  32.9789526  29.8822276  43.8808497  21.2172415  33.2935377  50.8399152
  22.1375425  33.4713976  51.0339199  21.1821998  32.3491422  50.6878851
  19.5176640  27.1667607  29.3153380  18.6108095  26.8700720  29.3916094
  19.7952621  26.8697425  28.4487667  10.4354580  28.4873971  39.7652427
  10.1157365  27.6339279  39.4726801   9.8888008  28.7022549  40.5210394
  14.2134488  31.2036412  43.4821933  14.4320498  32.1353520  43.5009967
  14.6260262  30.8444386  44.2676737  21.1338706  21.7104497  35.4697622
  20.3239434  21.3651582  35.8452868  21.8223122  21.4012041  36.0585233
  23.0629254  20.7882544  37.0921918  23.6160292  21.2077997  37.7511941
  23.2999340  19.8618292  37.1344874  19.0862353  26.7769618  52.8724682
  18.9859080  27.7263974  52.8036773  18.8683895  26.4487856  52.0000752
  18.2875424  24.0254543  29.4565360  19.1494588  24.3509441  29.7161177
  18.4725769  23.2386038  28.9438425  10.3042840  32.1076882  41.7345548
   9.6106312  31.6930835  41.2215503  11.0515831  32.1497419  41.1378967
  26.4408061  22.8983069  36.6000583  25.8606730  23.5567873  36.2178635
  26.1743994  22.0760414  36.1888000  24.8911627  22.2988127  38.8021903
  25.3911406  22.4104661  37.9936222  25.5347235  21.9949180  39.4422711
  18.9493623  30.2066756  51.6889744  18.4660705  31.0067116  51.8953633
  19.0354562  30.2174701  50.7357188  12.2179583  32.0395136  39.6111563
  12.1950271  32.1382823  38.6593446  12.5280219  32.8860287  39.9328729
  14.8766961  34.0971291  43.7258178  15.8310214  34.0655233  43.6588109
  14.6779484  33.6361915  44.5408404  15.4666343  32.6672407  46.2928975
  16.2859232  33.1616486  46.3163813  15.7403150  31.7504375  46.2646543
  25.2232939  25.0583159  35.6556931  24.3358794  25.3432810  35.4377126
  25.6386928  24.8976923  34.8084208  28.5747475  25.0829680  39.3711270
  29.3507865  25.5726133  39.6435887  27.8495609  25.5087735  39.8283140
  31.0120034  25.7957300  40.4285211  31.6064525  25.5553036  39.7178519
  31.0846617  25.0764430  41.0558747  13.2317189  39.6390911  40.7428375
  13.0971657  38.8791311  40.1766374  12.8149252  40.3631810  40.2757164
  24.3676152  34.8227834  29.7504951  25.0712003  35.0277837  30.3662606
  23.6438801  35.3904596  30.0154034  25.1973963  30.5737695  35.8707221
  25.1409164  31.0306247  35.0314853  25.7502305  29.8128380  35.6930064
  29.0078769  26.3627427  36.6957340  28.7515703  25.9624063  37.5265548
  28.3831637  27.0771221  36.5707480  33.3191106  29.1023500  39.2028632
  32.7590664  29.1716690  39.9760194  32.7134610  28.9264485  38.4828128
  16.3886315  40.5360228  40.9546818  16.2718699  41.4805660  40.8525508
  15.5678762  40.2333789  41.3432617  26.2762850  35.2610363  31.8003411
  27.1108454  34.8291562  31.6180886  26.1147193  35.0892377  32.7280305
  25.9308742  31.7642477  33.1659750  25.8757546  31.5986748  32.2248194
  25.3054797  32.4718510  33.3221940  10.7201257  27.0010541  46.9921172
  11.3660121  26.4909495  47.4808397  10.5118408  27.7379223  47.5664598
  23.2454649  34.0691388  52.4913313  24.1145809  34.2432041  52.1299948
  22.7661401  34.8885805  52.3689042  19.2404867  21.2650586  32.7445069
  19.2283537  22.2092426  32.9013339  20.1328289  21.0820731  32.4504530
  17.4140829  41.1888489  44.1702747  18.3168076  41.2212100  44.4869241
  17.1878199  40.2588940  44.1849082  19.1694431  39.9419476  40.8312825
  18.2190062  39.9421338  40.7177197  19.4726918  39.1952211  40.3148860
  23.0556987  17.8593362  36.9991005  22.2889383  17.3051849  37.1447688
  23.4667692  17.9315231  37.8605157  15.0598748  24.1478158  51.0896187
  15.9230210  23.7914963  51.2999511  14.4864159  23.8092053  51.7771591
  27.5723647  47.5842919  37.8217003  27.0088512  47.4932856  37.0533291
  27.4576042  46.7642823  38.3019496  25.1188079  49.0794111  40.6601224
  25.9109371  48.7384935  40.2447523  25.3584729  49.1889086  41.5803377
  33.1523206  51.2513887  33.1331468  32.5011185  51.8367967  32.7465482
  33.9467568  51.7820082  33.1926506  27.0778833  48.3403024  33.5318602
  27.8509709  47.7932011  33.3931478  27.4304232  49.2047273  33.7433064
  29.4145111  44.4995690  31.1637052  29.6670631  43.9777211  30.4020515
  28.4769670  44.3361835  31.2663736  39.8596821  43.4406701  39.8744774
  40.5921992  42.8705918  40.1082604  39.1036176  43.0528302  40.3151280
  29.1341399  46.4023796  33.3661427  29.0177657  45.7268699  34.0342512
  29.2443659  45.9156170  32.5493580  31.4772940  45.8633943  37.0708117
  31.1131147  45.3364564  37.7821038  32.3340056  45.4732412  36.8974602
  37.3822241  37.1528276  44.3339383  37.0505566  38.0223687  44.1100598
  36.7867854  36.8364560  45.0133413  31.1178427  40.8923843  32.0669465
  31.2852830  41.7604079  32.4339936  30.9275596  41.0551124  31.1430754
  27.3266242  45.8054618  39.7672000  26.4016738  45.6730833  39.9749692
  27.5750655  46.5848838  40.2641942  37.2750904  41.8723362  41.4132733
  36.3667782  41.8038770  41.1191494  37.2238500  42.3495307  42.2414558
  31.0967648  43.3481500  33.0516132  30.9767273  43.7938551  33.8901612
  30.4020236  43.6966818  32.4929670  24.6875053  45.4487892  40.6015789
  24.8167434  45.7022371  41.5155201  24.0072504  46.0415600  40.2820444
  28.8574540  56.1185142  36.7006263  28.7798570  57.0692967  36.7794744
  28.2536184  55.7731014  37.3581189  31.3491770  43.2913007  49.3567630
  30.5725104  43.8506927  49.3470495  31.9882333  43.7769790  49.8782500
  39.1412551  40.0739800  43.1910607  38.4986931  40.3672333  42.5450401
  38.6367479  39.9592720  43.9963803  36.7952714  43.8202973  33.8796466
  37.7070570  44.0530360  33.7044163  36.2862361  44.4040018  33.3171545
  29.6038142  46.0998461  48.9185597  30.3452827  46.6383505  48.6420421
  28.8975128  46.7264749  49.0757149  34.1388689  39.9961009  42.1286327
  33.2773168  40.2942263  42.4203064  34.1651124  40.2131408  41.1967359
  30.9550258  48.5403200  38.5360133  31.4188604  48.8190903  37.7464755
  30.6907057  47.6386644  38.3533223  27.8474340  48.0874681  41.4739896
  28.4175697  48.5161950  40.8357380  28.4382451  47.8057266  42.1724081
  29.8919145  44.6626352  35.3449698  30.5943188  45.1147396  35.8123624
  29.5599773  44.0210171  35.9729591  28.3399506  43.2538109  49.7200907
  27.7098167  43.9354390  49.9536304  28.2335594  43.1421190  48.7754045
  23.6344478  42.9209905  40.6466831  22.8443532  43.1767433  40.1706942
  24.1255726  43.7358243  40.7518872  25.5859224  43.2854484  37.6050308
  24.7890387  43.3973178  38.1233804  25.3584816  43.6241136  36.7391198
  21.9182181  43.1740395  43.0781822  22.1690220  44.0587405  43.3439398
  22.4541730  42.9944997  42.3056914  31.1312909  51.4767295  35.4211803
  30.9958584  52.3218831  35.8496651  31.6722722  51.6786573  34.6577737
  27.6180249  37.5558875  52.0826158  27.2247194  37.0025073  52.7573802
  28.4346389  37.8669453  52.4732676  24.5842307  48.9942733  35.9939728
  25.0966827  49.7885983  36.1445293  25.2365019  48.2969023  35.9273329
  26.3937191  52.1108489  38.0762481  26.5703820  53.0326454  37.8883465
  27.1894025  51.7966908  38.5056861  30.5348210  38.9716754  49.6746415
  31.2757923  39.5723907  49.5950877  30.7666133  38.2294392  49.1164457
  25.6789548  44.1573121  47.9524644  25.5643063  43.2558378  48.2531743
  24.8234066  44.4036818  47.6009461  27.5168507  53.6286663  44.0772823
  28.0675932  53.5003726  43.3049817  26.6779983  53.9281552  43.7267716
  34.8562624  52.3793661  47.5793546  34.8381099  53.2002542  47.0873815
  35.7782544  52.2547737  47.8043687  34.4805373  34.9997857  43.9510696
  34.1369642  35.8899498  43.8749807  34.8484335  34.8099514  43.0880281
  22.5491223  47.3231387  36.7699298  23.3866445  47.7328396  36.5533006
  22.7269491  46.3830829  36.7399492  34.4455655  44.9906468  32.4583131
  33.9302279  45.7611073  32.6971519  34.1732964  44.3171604  33.0816193
  32.0302766  39.8356169  37.5168370  31.1744363  39.4463019  37.3374009
  32.4429718  39.9148129  36.6568155  33.5601913  37.3702512  41.9159930
  33.0566709  37.3332647  41.1027735  33.8532520  38.2795255  41.9756586
  29.8044799  37.4541242  40.9226111  30.6697796  37.2584050  40.5632001
  29.8722308  37.2251593  41.8495468  39.4189930  47.7438823  34.3936305
  38.6419372  47.4049982  33.9491467  40.0981411  47.7491446  33.7191270
  34.2341959  42.8633560  34.2842913  33.9292094  43.1779709  35.1353056
  35.1872401  42.9414980  34.3270246  27.4107118  39.6843450  38.2942478
  27.9850870  39.4618631  37.5615671  27.9978100  39.7532144  39.0471079
  27.7376705  41.7147911  32.3138363  26.9014017  42.0522597  32.6347638
  27.5981475  41.5796890  31.3765500  29.7129786  36.5584698  37.0217548
  29.0594198  36.2433716  36.3974162  29.6710260  35.9360439  37.7477370
  30.8240991  46.8403994  28.9370840  29.9168052  46.6093247  29.1361989
  31.3212023  46.0441613  29.1244821  33.7309070  55.5501501  31.8567526
  33.0570768  55.8533197  32.4652484  34.1174891  56.3530581  31.5072983
  33.7302574  44.4458048  36.4767875  34.4774393  44.9579445  36.1674997
  33.9994163  44.1242100  37.3372269  32.0029224  46.9416588  33.4594830
  31.0940443  46.6575621  33.5567299  32.0324308  47.3615667  32.5998137
  36.1781411  41.4815164  38.4586665  35.4404168  40.9692550  38.7896907
  36.4308185  41.0415546  37.6469942  36.2793038  34.2591416  39.0528434
  36.5851915  33.3988779  38.7654349  37.0045643  34.8509036  38.8527428
  22.5717394  44.6622103  37.4410032  22.3741794  44.0691463  36.7161098
  22.0164058  44.3574313  38.1585971  30.5514118  44.5545209  39.5604625
  30.6062728  43.6019045  39.4847102  29.7405320  44.7104648  40.0445923
  31.7005312  48.4825332  30.7982908  31.2624742  47.7661191  30.3388546
  32.4415753  48.7101447  30.2368000  28.4906478  43.1722269  37.3195004
  27.6774344  43.4716439  37.7260196  28.9865472  42.7777958  38.0369486
  30.6415056  53.1680026  39.2529269  30.5991235  53.3940872  38.3237801
  31.5577755  52.9343400  39.4015070  39.8178427  46.7582529  36.8559227
  39.6796325  46.9484125  35.9280416  39.4614645  47.5201912  37.3127278
  27.9820553  40.7440624  42.9356239  28.6219932  40.6029383  42.2379202
  27.1498083  40.4575138  42.5594841  28.7580857  50.0443055  39.0491231
  29.5521455  49.5493375  38.8473806  28.0472549  49.5160918  38.6858937
  25.0663620  44.1886136  35.1250984  24.1361208  44.1270592  35.3420946
  25.1621092  43.6662089  34.3287625  24.9849169  40.7140949  37.7129226
  25.2455987  41.6286283  37.6038386  25.8066342  40.2465392  37.8625839
  26.4574095  42.1278706  44.8828050  27.1297148  41.9196069  44.2340699
  25.6303881  41.9300792  44.4433283  32.3599667  38.7540647  46.8993711
  31.7127582  39.4530597  46.8058188  33.1300682  39.1876791  47.2669959
  31.9300285  55.7181173  34.0714605  32.1052040  55.2469216  34.8860228
  31.2433073  56.3446939  34.2995866  26.8601592  45.4021309  45.6430487
  26.7221390  44.6701548  46.2442026  27.7706515  45.3130210  45.3614675
  35.8216539  47.3409714  30.3914966  35.2045710  46.6156542  30.2948019
  35.3533028  48.1019074  30.0482040  28.2012826  42.1006487  46.9509807
  27.6650183  41.6497225  47.6031403  27.6129535  42.2352395  46.2080271
  26.4961370  58.8670536  40.8454465  26.7357968  59.4989060  41.5233484
  25.6530566  58.5158576  41.1319824  27.6115085  41.5595138  29.5136270
  26.7344552  41.4383939  29.1498517  28.0872838  40.7681216  29.2615159
  19.1317226  46.3472298  39.6077777  19.8188265  46.0334028  39.0198793
  18.9765354  47.2513662  39.3345029  23.9351948  41.2362494  44.0362801
  23.8510136  40.6288164  43.3013211  23.1134654  41.7271513  44.0372297
  31.0089232  54.6749658  43.2495969  30.9359403  55.4804630  43.7615274
  30.5666625  54.8741624  42.4243991  30.7979011  53.9121428  36.7598791
  30.0146533  54.4543109  36.8537015  31.4971757  54.4295408  37.1593032
  34.1075662  39.7216058  39.4032996  34.6044361  38.9686020  39.0834066
  33.3362643  39.7580375  38.8376205  33.4687915  54.5736492  45.4054128
  34.1815888  55.2083957  45.3330029  32.9777944  54.6700358  44.5894130
  30.6910630  41.8633441  39.1304681  30.3208418  41.3104481  39.8185586
  31.1869723  41.2591574  38.5779681  38.5777994  44.3205064  37.5121454
  39.0438446  45.1533056  37.4381756  39.0285494  43.8550046  38.2166712
  28.5199829  52.3230936  46.2259699  29.2209288  52.9567419  46.3789093
  28.0494944  52.6645667  45.4655338  36.5494656  36.6885651  41.5512355
  35.6357736  36.9189878  41.7194562  36.9787758  36.7724095  42.4026387
  24.1167547  51.8567291  43.1590801  24.7020984  51.1110979  43.2918705
  23.9192385  52.1671248  44.0427465  26.9706202  54.8918538  38.1753244
  26.3016577  55.3764666  37.6917284  26.8319072  55.1387759  39.0896622
  18.7085202  44.4272891  41.8795244  18.7469301  43.8936482  42.6732363
  18.2025494  43.9008097  41.2606222  31.1111471  56.9262282  44.7735902
  31.6629779  57.0893903  45.5384987  31.4517664  57.5166720  44.1015927
  26.0875964  39.2737432  45.3757787  26.1517290  40.1352263  44.9635184
  26.0243084  38.6611433  44.6430145  25.5628236  41.3460564  49.0230821
  26.1900275  40.9637641  49.6368345  24.7056155  41.1274766  49.3886514
  22.3393779  43.1536993  34.9549176  22.6347220  42.2447672  34.9016230
  21.4381815  43.1324733  34.6330178  34.2479858  54.8744257  41.7599584
  34.1230997  54.0733997  41.2510530  34.9058949  55.3690451  41.2713554
  25.8688026  41.2292990  40.9376724  25.1474612  41.8428958  40.7984198
  26.6581282  41.7650755  40.8593370  28.6714340  38.5647416  47.2117376
  29.1948742  38.8109713  47.9743685  28.4526673  39.3967451  46.7920514
  24.0681621  40.8351091  35.0788501  23.7394327  39.9548470  34.8963607
  24.4220992  40.7798760  35.9664890  27.1823444  41.1224061  35.4463979
  27.5219516  41.6509982  34.7242587  27.6295564  41.4604467  36.2222545
  29.8766885  39.5061111  44.8967047  29.5363705  38.7068925  45.2987727
  29.1705891  39.8062822  44.3243880  30.5283357  36.5910424  43.3494370
  31.3509426  36.1170902  43.2273260  30.7721420  37.3700908  43.8493056
  29.1691591  39.6198682  33.6457271  29.8899954  39.9979935  33.1420988
  28.5456895  40.3387559  33.7492249  33.3122714  40.3243831  34.5815604
  33.5286328  41.2068469  34.2804432  32.8316781  39.9330045  33.8521246
  28.0521935  43.2829545  41.1586348  27.9066516  43.5969848  42.0510630
  27.5747139  43.9014445  40.6057247  29.9118318  40.2732093  41.2067238
  29.8979887  39.3773186  40.8699536  30.6290746  40.2802756  41.8405524
  31.7644449  40.7069433  43.2520365  31.5062227  41.6286503  43.2504696
  31.2329489  40.3099867  43.9420829  22.5267598  45.8234889  44.0974010
  21.9821066  46.5994697  44.2294284  23.4046947  46.1705693  43.9393131
  29.3155214  39.1546473  36.4754808  29.4371125  38.2263119  36.6745696
  29.0257257  39.1685159  35.5633123  32.1846405  36.8401383  39.6121528
  32.2068101  36.9040716  38.6573507  32.6014464  36.0005892  39.8062034
  37.6965810  53.1286984  33.1307349  38.3916715  53.7493677  33.3494664
  38.0388960  52.2782335  33.4059727  23.3133619  44.9504785  46.9904166
  22.5715355  45.0987421  47.5768797  22.9926364  45.2113051  46.1270916
  39.5957233  50.5786690  34.6594680  40.1208557  50.9173963  33.9344000
  39.5079586  49.6433705  34.4757814  31.2577282  54.4920763  46.7884556
  31.5664408  54.2469910  47.6607256  32.0552764  54.6967402  46.3003427
  31.2797894  56.6458673  39.0189933  30.8402884  56.1535052  39.7122790
  32.0306011  56.1031641  38.7782008  23.7590233  52.8370214  39.0214561
  24.5848253  52.5373986  38.6413205  23.4084285  52.0677836  39.4704350
  28.7271766  52.1896682  41.0912235  28.1051776  51.5267387  40.7914462
  29.3976633  52.2157814  40.4085882  21.9598838  50.7556540  39.9803495
  21.1230746  50.3278715  39.7987496  21.9322484  50.9488984  40.9174286
  28.7996294  40.6678470  50.6844741  28.8484449  41.5440593  50.3022510
  29.3418808  40.1255863  50.1116384  28.2885273  50.7400605  34.5670695
  28.4373394  51.4236070  33.9137368  29.0951717  50.7205696  35.0820151
  31.0295582  41.4209843  47.4391099  30.1598892  41.7143409  47.1673688
  31.2655063  42.0050288  48.1598363  26.0437906  46.7665783  35.5731764
  25.7983948  45.8628113  35.7711974  26.2133821  46.7682934  34.6311242
  33.7334616  37.6389459  44.9556520  34.2516560  38.3750486  44.6303008
  33.3789749  37.9453453  45.7903279  25.3133554  42.4994141  33.0717926
  24.6202799  42.5738496  32.4157962  25.0685306  41.7354484  33.5939442
  33.9847210  34.0589742  40.4757416  34.2648964  33.3912931  41.1017843
  34.7697817  34.2518838  39.9632080  31.7880679  53.2348736  32.0382443
  31.2154646  53.8538923  31.5852914  32.3613472  53.7848098  32.5722365
  35.8770448  39.5662959  44.4088392  35.2820380  39.8467972  43.7134881
  35.5920145  40.0556860  45.1805133  37.6365955  52.8351756  30.1294972
  37.5579587  52.5011620  31.0230730  38.4575622  53.3273524  30.1286445
  32.1727477  44.5709549  29.3798495  33.1186582  44.4415757  29.4486913
  31.7941722  43.8324211  29.8567923  38.1449362  36.2365555  39.3425387
  37.9474183  35.9280643  40.2268719  38.7549067  36.9627194  39.4723317
  30.3570394  42.4959525  29.3153380  29.4501850  42.1992638  29.3916094
  30.6346375  42.1989343  28.4487667  21.2748335  43.8165888  39.7652427
  20.9551119  42.9631197  39.4726801  20.7281763  44.0314467  40.5210394
  25.0528242  46.5328329  43.4821933  25.2714252  47.4645437  43.5009967
  25.4654016  46.1736304  44.2676737  31.9732460  37.0396415  35.4697622
  31.1633188  36.6943500  35.8452868  32.6616877  36.7303958  36.0585233
  33.9023008  36.1174462  37.0921918  34.4554047  36.5369915  37.7511941
  34.1393095  35.1910210  37.1344874  29.9256108  42.1061535  52.8724682
  29.8252834  43.0555892  52.8036773  29.7077650  41.7779774  52.0000752
  29.1269179  39.3546460  29.4565360  29.9888343  39.6801359  29.7161177
  29.3119523  38.5677956  28.9438425  21.1436595  47.4368800  41.7345548
  20.4500066  47.0222753  41.2215503  21.8909586  47.4789336  41.1378967
  37.2801815  38.2274987  36.6000583  36.7000484  38.8859791  36.2178635
  37.0137748  37.4052331  36.1888000  35.7305382  37.6280044  38.8021903
  36.2305160  37.7396579  37.9936222  36.3740990  37.3241097  39.4422711
  29.7887378  45.5358674  51.6889744  29.3054459  46.3359034  51.8953633
  29.8748317  45.5466619  50.7357188  23.0573337  47.3687054  39.6111563
  23.0344025  47.4674741  38.6593446  23.3673974  48.2152205  39.9328729
  25.7160715  49.4263209  43.7258178  26.6703969  49.3947151  43.6588109
  25.5173239  48.9653832  44.5408404  26.3060097  47.9964325  46.2928975
  27.1252986  48.4908403  46.3163813  26.5796905  47.0796293  46.2646543
  36.0626693  40.3875077  35.6556931  35.1752548  40.6724728  35.4377126
  36.4780683  40.2268840  34.8084208  39.4141230  40.4121598  39.3711270
  40.1901620  40.9018051  39.6435887  38.6889364  40.8379652  39.8283140
  24.0710944  54.9682828  40.7428375  23.9365412  54.2083229  40.1766374
  23.6543006  55.6923728  40.2757164  35.2069907  50.1519752  29.7504951
  35.9105757  50.3569754  30.3662606  34.4832556  50.7196514  30.0154034
  36.0367717  45.9029613  35.8707221  35.9802919  46.3598164  35.0314853
  36.5896060  45.1420298  35.6930064  39.8472523  41.6919345  36.6957340
  39.5909457  41.2915981  37.5265548  39.2225391  42.4063139  36.5707480
  27.2280070  55.8652145  40.9546818  27.1112454  56.8097578  40.8525508
  26.4072516  55.5625707  41.3432617  37.1156604  50.5902281  31.8003411
  37.9502208  50.1583479  31.6180886  36.9540947  50.4184295  32.7280305
  36.7702497  47.0934394  33.1659750  36.7151300  46.9278666  32.2248194
  36.1448552  47.8010427  33.3221940  21.5595011  42.3302459  46.9921172
  22.2053875  41.8201413  47.4808397  21.3512163  43.0671140  47.5664598
  30.0798622  36.5942503  32.7445069  30.0677292  37.5384343  32.9013339
  30.9722044  36.4112649  32.4504530  28.2534584  56.5180407  44.1702747
  29.1561831  56.5504017  44.4869241  28.0271954  55.5880858  44.1849082
  30.0088186  55.2711394  40.8312825  29.0583817  55.2713255  40.7177197
  30.3120672  54.5244128  40.3148860  33.8950741  33.1885280  36.9991005
  33.1283137  32.6343767  37.1447688  34.3061446  33.2607149  37.8605157
  25.8992502  39.4770076  51.0896187  26.7623964  39.1206881  51.2999511
  25.3257913  39.1383971  51.7771591  38.4117401  62.9134837  37.8217003
  37.8482267  62.8224774  37.0533291  38.2969796  62.0934741  38.3019496
  35.9581833  64.4086028  40.6601224  36.7503125  64.0676853  40.2447523
  36.1978483  64.5181003  41.5803377  43.9916960  66.5805804  33.1331468
  43.3404940  67.1659885  32.7465482  44.7861323  67.1111999  33.1926506
  37.9172587  63.6694941  33.5318602  38.6903463  63.1223929  33.3931478
  38.2697986  64.5339191  33.7433064  40.2538865  59.8287608  31.1637052
  40.5064386  59.3069129  30.4020515  39.3163424  59.6653753  31.2663736
  45.4692225  64.2696236  33.6700452  44.8338058  64.3430863  34.3821357
  45.1389632  64.8589835  32.9919532  39.9735154  61.7315714  33.3661427
  39.8571412  61.0560617  34.0342512  40.0837414  61.2448087  32.5493580
  41.9572182  56.2215760  32.0669465  42.1246584  57.0895997  32.4339936
  41.7669351  56.3843042  31.1430754  41.9361403  58.6773418  33.0516132
  41.8161028  59.1230469  33.8901612  41.2413991  59.0258736  32.4929670
  35.5268807  60.7779810  40.6015789  35.6561189  61.0314289  41.5155201
  34.8466259  61.3707518  40.2820444  39.6968295  71.4477060  36.7006263
  39.6192324  72.3984885  36.7794744  39.0929938  71.1022932  37.3581189
  50.1205283  65.0675147  38.6254411  49.4356321  65.4474049  38.0751444
  50.2049132  65.6770474  39.3586359  40.7312899  59.9918270  35.3449698
  41.4336942  60.4439314  35.8123624  40.3993528  59.3502089  35.9729591
  34.4738233  58.2501823  40.6466831  33.6837287  58.5059351  40.1706942
  34.9649480  59.0650160  40.7518872  48.4902043  65.5907062  43.3972112
  49.3119486  65.1887249  43.1154794  48.4864445  65.4875296  44.3488228
  36.4252978  58.6146402  37.6050308  35.6284142  58.7265096  38.1233804
  36.1978571  58.9533054  36.7391198  32.7575936  58.5032313  43.0781822
  33.0083974  59.3879323  43.3439398  33.2935484  58.3236915  42.3056914
  41.9706664  66.8059213  35.4211803  41.8352338  67.6510748  35.8496651
  42.5116476  67.0078490  34.6577737  35.4236061  64.3234651  35.9939728
  35.9360582  65.1177901  36.1445293  36.0758774  63.6260941  35.9273329
  37.2330946  67.4400407  38.0762481  37.4097574  68.3618372  37.8883465
  38.0287779  67.1258826  38.5056861  33.3884978  62.6523305  36.7699298
  34.2260200  63.0620313  36.5533006  33.5663246  61.7122747  36.7399492
  45.2849410  60.3198386  32.4583131  44.7696033  61.0902990  32.6971519
  45.0126718  59.6463522  33.0816193  43.5182145  64.3515701  35.9335867
  42.9903507  63.6168461  35.6209104  43.0169648  65.1290377  35.6875835
  38.5770460  57.0439828  32.3138363  37.7407772  57.3814515  32.6347638
  38.4375229  56.9088808  31.3765500  41.6634745  62.1695911  28.9370840
  40.7561807  61.9385165  29.1361989  42.1605777  61.3733530  29.1244821
  44.5702824  70.8793418  31.8567526  43.8964523  71.1825115  32.4652484
  44.9568646  71.6822499  31.5072983  42.8422979  62.2708506  33.4594830
  41.9334198  61.9867539  33.5567299  42.8718062  62.6907585  32.5998137
  48.0742246  65.8815096  37.2285997  47.6204573  65.0406005  37.2851188
  47.4436213  66.5176494  37.5660777  46.5175185  67.7191592  38.1635815
  46.8098160  68.2796649  37.4448181  47.0273806  68.0120153  38.9188975
  33.4111149  59.9914020  37.4410032  33.2135549  59.3983381  36.7161098
  32.8557813  59.6866230  38.1585971  42.5399066  63.8117250  30.7982908
  42.1018496  63.0953109  30.3388546  43.2809507  64.0393365  30.2368000
  39.3300233  58.5014186  37.3195004  38.5168098  58.8008357  37.7260196
  39.8259227  58.1069875  38.0369486  35.9057375  59.5178054  35.1250984
  34.9754963  59.4562510  35.3420946  36.0014847  58.9954007  34.3287625
  42.7694039  71.0473091  34.0714605  42.9445795  70.5761134  34.8860228
  42.0826827  71.6738857  34.2995866  46.6610294  62.6701631  30.3914966
  46.0439465  61.9448460  30.2948019  46.1926782  63.4310992  30.0482040
  37.3355124  74.1962454  40.8454465  37.5751723  74.8280978  41.5233484
  36.4924321  73.8450494  41.1319824  38.4508840  56.8887056  29.5136270
  37.5738306  56.7675856  29.1498517  38.9266593  56.0973134  29.2615159
  29.9710980  61.6764215  39.6077777  30.6582020  61.3625945  39.0198793
  29.8159109  62.5805580  39.3345029  34.7745702  56.5654412  44.0362801
  34.6903891  55.9580082  43.3013211  33.9528409  57.0563430  44.0372297
  41.8482986  70.0041576  43.2495969  41.7753158  70.8096548  43.7615274
  41.4060379  70.2033542  42.4243991  41.6372766  69.2413346  36.7598791
  40.8540288  69.7835026  36.8537015  42.3365511  69.7587326  37.1593032
  44.3081670  69.9028410  45.4054128  45.0209642  70.5375875  45.3330029
  43.8171698  69.9992276  44.5894130  46.0299197  63.8079663  36.9771419
  45.0955475  63.9281125  36.8076124  46.2075865  62.9052130  36.7131429
  47.4847979  65.9940803  34.5107606  47.7607823  65.8797398  35.4201480
  46.6152478  65.5958288  34.4719779  44.1202043  70.2427154  38.1540419
  44.3024438  69.4248810  38.6168172  44.9435029  70.4594846  37.7165309
  44.4544209  69.1695339  35.4155468  44.9831975  68.6587794  34.8025630
  44.7172428  68.8537870  36.2801001  34.9561301  67.1859209  43.1590801
  35.5414738  66.4402896  43.2918705  34.7586140  67.4963165  44.0427465
  37.8099957  70.2210456  38.1753244  37.1410332  70.7056584  37.6917284
  37.6712826  70.4679676  39.0896622  29.5478956  59.7564809  41.8795244
  29.5863056  59.2228399  42.6732363  29.0419249  59.2300014  41.2606222
  41.9505225  72.2554199  44.7735902  42.5023533  72.4185821  45.5384987
  42.2911419  72.8458637  44.1015927  33.1787534  58.4828911  34.9549176
  33.4740975  57.5739589  34.9016230  32.2775569  58.4616650  34.6330178
  45.0873612  70.2036175  41.7599584  44.9624752  69.4025915  41.2510530
  45.7452704  70.6982368  41.2713554  47.1508521  68.0045195  43.3879134
  46.2038856  67.8850546  43.3157461  47.4991294  67.1167693  43.4705396
  44.1554954  67.7997911  39.5883487  44.0079917  66.8714619  39.7691057
  44.9808448  67.8218002  39.1040562  47.7589076  68.6226470  40.6748359
  48.6835623  68.4169331  40.5372810  47.5904379  68.3742871  41.5837701
  40.0085346  54.9490600  33.6457271  40.7293708  55.3271853  33.1420988
  39.3850650  55.6679477  33.7492249  47.5484392  69.1412137  36.0310451
  47.7221270  68.5758560  35.2784303  48.0413283  69.9413032  35.8489941
  33.3661352  61.1526807  44.0974010  32.8214820  61.9286615  44.2294284
  34.2440702  61.4997611  43.9393131  48.5359565  68.4578902  33.1307349
  49.2310469  69.0785595  33.3494664  48.8782715  67.6074253  33.4059727
  34.1527374  60.2796703  46.9904166  33.4109110  60.4279338  47.5768797
  33.8320118  60.5404968  46.1270916  50.4350988  65.9078607  34.6594680
  50.9602312  66.2465880  33.9344000  50.3473340  64.9725623  34.4757814
  42.0971037  69.8212681  46.7884556  42.4058163  69.5761828  47.6607256
  42.8946519  70.0259320  46.3003427  42.1191649  71.9750591  39.0189933
  41.6796639  71.4826969  39.7122790  42.8699766  71.4323558  38.7782008
  34.5983988  68.1662132  39.0214561  35.4242007  67.8665903  38.6413205
  34.2478040  67.3969754  39.4704350  32.7992593  66.0848458  39.9803495
  31.9624501  65.6570632  39.7987496  32.7716238  66.2780901  40.9174286
  39.1279028  66.0692523  34.5670695  39.2767148  66.7527988  33.9137368
  39.9345471  66.0497613  35.0820151  36.8831661  62.0957701  35.5731764
  36.6377703  61.1920031  35.7711974  37.0527575  62.0974851  34.6311242
  36.1527308  57.8286058  33.0717926  35.4596553  57.9030413  32.4157962
  35.9079060  57.0646402  33.5939442  42.6274433  68.5640654  32.0382443
  42.0548400  69.1830841  31.5852914  43.2007227  69.1140015  32.5722365
  45.8471693  68.8477804  33.1691025  46.7802366  68.7823365  33.3723900
  45.7594906  69.6834071  32.7105558  48.4759710  68.1643674  30.1294972
  48.3973341  67.8303538  31.0230730  49.2969376  68.6565442  30.1286445
  43.0121232  59.9001466  29.3798495  43.9580336  59.7707674  29.4486913
  42.6335477  59.1616128  29.8567923  41.1964149  57.8251443  29.3153380
  40.2895604  57.5284555  29.3916094  41.4740130  57.5281261  28.4487667
  32.1142089  59.1457806  39.7652427  31.7944874  58.2923114  39.4726801
  31.5675517  59.3606384  40.5210394  35.8921997  61.8620247  43.4821933
  36.1108007  62.7937355  43.5009967  36.3047771  61.5028222  44.2676737
  39.9662933  54.6838378  29.4565360  40.8282097  55.0093276  29.7161177
  40.1513278  53.8969874  28.9438425  31.9830349  62.7660718  41.7345548
  31.2893821  62.3514670  41.2215503  32.7303340  62.8081254  41.1378967
  33.8967092  62.6978971  39.6111563  33.8737780  62.7966659  38.6593446
  34.2067728  63.5444122  39.9328729  36.5554470  64.7555126  43.7258178
  37.5097723  64.7239069  43.6588109  36.3566993  64.2945750  44.5408404
  34.9104698  70.2974746  40.7428375  34.7759166  69.5375147  40.1766374
  34.4936761  71.0215646  40.2757164  46.0463661  65.4811669  29.7504951
  46.7499512  65.6861672  30.3662606  45.3226310  66.0488431  30.0154034
  38.0673824  71.1944063  40.9546818  37.9506208  72.1389495  40.8525508
  37.2466271  70.8917625  41.3432617  47.9550359  65.9194199  31.8003411
  48.7895963  65.4875397  31.6180886  47.7934702  65.7476212  32.7280305
  47.6096251  62.4226312  33.1659750  47.5545055  62.2570583  32.2248194
  46.9842306  63.1302345  33.3221940  32.3988766  57.6594376  46.9921172
  33.0447630  57.1493330  47.4808397  32.1905917  58.3963058  47.5664598
  40.9192376  51.9234421  32.7445069  40.9071046  52.8676261  32.9013339
  41.8115798  51.7404566  32.4504530  39.0928338  71.8472325  44.1702747
  39.9955585  71.8795935  44.4869241  38.8665708  70.9172776  44.1849082
  40.8481940  70.6003311  40.8312825  39.8977571  70.6005173  40.7177197
  41.1514427  69.8536046  40.3148860  56.5834634  76.4363850  41.8958588
  57.2213044  76.3170597  41.1921928  56.4655477  77.3844694  41.9546540
  53.3924340  76.3891278  41.8320112  53.0542852  76.2732343  40.9440647
  54.2614108  75.9882443  41.8121118  49.2511156  78.2426754  37.8217003
  48.6876021  78.1516691  37.0533291  49.1363551  77.4226659  38.3019496
  53.8744123  77.5426130  47.7906318  53.8632764  77.1478928  46.9186821
  54.0364763  76.8092202  48.3840089  46.7975588  79.7377946  40.6601224
  47.5896880  79.3968771  40.2447523  47.0372238  79.8472921  41.5803377
  54.8310715  81.9097722  33.1331468  54.1798694  82.4951802  32.7465482
  55.6255077  82.4403917  33.1926506  48.7566342  78.9986859  33.5318602
  49.5297218  78.4515846  33.3931478  49.1091741  79.8631108  33.7433064
  50.5951384  80.3263241  46.7385502  50.3041250  81.2308872  46.6232168
  51.2308369  80.3679769  47.4529571  51.5207591  77.7040090  43.3286861
  52.1171163  77.4796112  42.6143824  51.5782563  76.9624835  43.9312309
  51.0932620  75.1579525  31.1637052  51.3458140  74.6361047  30.4020515
  50.1557179  74.9945671  31.2663736  56.1375902  74.1615304  38.9711796
  56.9238992  73.7434727  38.6202213  56.4014607  75.0661396  39.1393444
  56.3085980  79.5988154  33.6700452  55.6731813  79.6722780  34.3821357
  55.9783386  80.1881753  32.9919532  61.5384330  74.0990537  39.8744774
  62.2709501  73.5289754  40.1082604  60.7823685  73.7112137  40.3151280
  50.8128908  77.0607631  33.3661427  50.6965166  76.3852535  34.0342512
  50.9231168  76.5740005  32.5493580  53.1560449  76.5217778  37.0708117
  52.7918656  75.9948399  37.7821038  54.0127565  76.1316247  36.8974602
  52.7965936  71.5507678  32.0669465  52.9640339  72.4187914  32.4339936
  52.6063105  71.7134960  31.1430754  55.5541269  80.0124657  43.7335295
  55.2541992  80.9149696  43.6251103  55.2092329  79.7456840  44.5856448
  49.0053751  76.4638454  39.7672000  48.0804247  76.3314668  39.9749692
  49.2538164  77.2432673  40.2641942  58.9538413  72.5307197  41.4132733
  58.0455291  72.4622606  41.1191494  58.9026009  73.0079142  42.2414558
  52.7755157  74.0065336  33.0516132  52.6554782  74.4522386  33.8901612
  52.0807745  74.3550653  32.4929670  46.3662562  76.1071727  40.6015789
  46.4954943  76.3606206  41.5155201  45.6860013  76.6999435  40.2820444
  50.5362049  86.7768977  36.7006263  50.4586079  87.7276802  36.7794744
  49.9323693  86.4314850  37.3581189  60.8200060  70.7323636  43.1910607
  60.1774440  71.0256169  42.5450401  60.3154988  70.6176556  43.9963803
  58.4740223  74.4786809  33.8796466  59.3858079  74.7114195  33.7044163
  57.9649870  75.0623853  33.3171545  56.7580991  78.9011437  47.5157759
  57.1664347  78.4593847  46.7712391  56.0358252  78.3264064  47.7691951
  53.1112061  73.8384043  44.8891315  53.9573256  74.2623457  45.0325964
  53.0510699  73.1817668  45.5829879  57.0809806  79.4612627  41.2710047
  56.4518668  79.6258341  40.5686115  56.6935468  79.8754237  42.0421011
  60.9599037  80.3967065  38.6254411  60.2750076  80.7765966  38.0751444
  61.0442887  81.0062392  39.3586359  58.2149969  78.0427024  45.2249755
  58.4266864  78.6858784  44.5484136  58.1679717  77.2089341  44.7571685
  55.8176198  70.6544845  42.1286327  54.9560677  70.9526098  42.4203064
  55.8438633  70.8715244  41.1967359  52.6337767  79.1987035  38.5360133
  53.0976113  79.4774738  37.7464755  52.3694566  78.2970480  38.3533223
  49.5261849  78.7458517  41.4739896  50.0963206  79.1745785  40.8357380
  50.1169960  78.4641101  42.1724081  51.5706654  75.3210188  35.3449698
  52.2730697  75.7731231  35.8123624  51.2387282  74.6794006  35.9729591
  45.3131987  73.5793740  40.6466831  44.5231041  73.8351269  40.1706942
  45.8043235  74.3942078  40.7518872  59.3295797  80.9198979  43.3972112
  60.1513241  80.5179167  43.1154794  59.3258200  80.8167214  44.3488228
  47.2646733  73.9438320  37.6050308  46.4677896  74.0557014  38.1233804
  47.0372325  74.2824972  36.7391198  53.0952400  80.4683023  45.5532823
  53.1596833  80.9303430  46.3890994  52.3863324  79.8380388  45.6815132
  43.5969690  73.8324231  43.0781822  43.8477729  74.7171241  43.3439398
  44.1329239  73.6528832  42.3056914  67.4201790  77.2637728  39.7457084
  66.6665498  76.6945126  39.5901088  67.5549331  77.2300392  40.6927718
  52.8100418  82.1351130  35.4211803  52.6746093  82.9802666  35.8496651
  53.3510231  82.3370408  34.6577737  46.2629816  79.6526568  35.9939728
  46.7754336  80.4469819  36.1445293  46.9152528  78.9552859  35.9273329
  48.0724700  82.7692325  38.0762481  48.2491329  83.6910289  37.8883465
  48.8681534  82.4550744  38.5056861  54.4368895  82.7574697  49.5512145
  53.9932749  81.9711075  49.2333049  55.0986108  82.9453847  48.8856036
  49.1956016  84.2870498  44.0772823  49.7463441  84.1587562  43.3049817
  48.3567492  84.5865387  43.7267716  56.5350133  83.0377497  47.5793546
  56.5168608  83.8586378  47.0873815  57.4570053  82.9131572  47.8043687
  52.9923187  80.5521626  48.4217055  53.5251524  79.7909914  48.1916363
  52.4637268  80.2595278  49.1641209  44.2278732  77.9815223  36.7699298
  45.0653954  78.3912231  36.5533006  44.4057000  77.0414665  36.7399492
  56.1243164  75.6490303  32.4583131  55.6089788  76.4194908  32.6971519
  55.8520473  74.9755439  33.0816193  53.7090275  70.4940004  37.5168370
  52.8531872  70.1046854  37.3374009  54.1217227  70.5731965  36.6568155
  55.2389422  68.0286347  41.9159930  54.7354218  67.9916482  41.1027735
  55.5320029  68.9379090  41.9756586  51.4832308  68.1125077  40.9226111
  52.3485305  67.9167886  40.5632001  51.5509817  67.8835429  41.8495468
  61.0977439  78.4022658  34.3936305  60.3206881  78.0633817  33.9491467
  61.7768920  78.4075281  33.7191270  55.9129468  73.5217395  34.2842913
  55.6079603  73.8363544  35.1353056  56.8659910  73.5998815  34.3270246
  54.3575899  79.6807619  35.9335867  53.8297261  78.9460378  35.6209104
  53.8563402  80.4582295  35.6875835  59.3368745  77.8756639  41.0502913
  58.6792420  78.5655901  41.1383042  60.1409145  78.2653071  41.3936899
  49.0894627  70.3427285  38.2942478  49.6638379  70.1202466  37.5615671
  49.6765609  70.4115979  39.0471079  58.1474204  76.2301012  39.1006855
  58.6606086  76.8631004  39.6028564  58.7975428  75.6302207  38.7350215
  49.4164214  72.3731746  32.3138363  48.5801526  72.7106432  32.6347638
  49.2768984  72.2380726  31.3765500  51.3917295  67.2168534  37.0217548
  50.7381707  66.9017551  36.3974162  51.3497769  66.5944274  37.7477370
  52.5028500  77.4987829  28.9370840  51.5955561  77.2677082  29.1361989
  52.9999532  76.7025448  29.1244821  55.4096578  86.2085336  31.8567526
  54.7358277  86.5117033  32.4652484  55.7962400  87.0114416  31.5072983
  54.6255035  73.7050467  41.3465195  53.7077596  73.9265414  41.1886883
  55.0415179  73.7796778  40.4876903  55.4090083  75.1041883  36.4767875
  56.1561902  75.6163280  36.1674997  55.6781672  74.7825936  37.3372269
  53.6816733  77.6000424  33.4594830  52.7727952  77.3159457  33.5567299
  53.7111817  78.0199502  32.5998137  58.9136000  81.2107013  37.2285997
  58.4598328  80.3697923  37.2851188  58.2829967  81.8468412  37.5660777
  57.8568920  72.1398999  38.4586665  57.1191677  71.6276385  38.7896907
  58.1095694  71.6999381  37.6469942  57.3568940  83.0483510  38.1635815
  57.6491914  83.6088567  37.4448181  57.8667560  83.3412071  38.9188975
  44.2504903  75.3205938  37.4410032  44.0529303  74.7275299  36.7161098
  43.6951567  75.0158148  38.1585971  52.2301627  75.2129044  39.5604625
  52.2850237  74.2602881  39.4847102  51.4192829  75.3688483  40.0445923
  53.3792821  79.1409167  30.7982908  52.9412251  78.4245026  30.3388546
  54.1203262  79.3685282  30.2368000  50.1693987  73.8306104  37.3195004
  49.3561853  74.1300275  37.7260196  50.6652981  73.4361793  38.0369486
  52.3202565  83.8263861  39.2529269  52.2778744  84.0524707  38.3237801
  53.2365264  83.5927236  39.4015070  61.4965936  77.4166364  36.8559227
  61.3583834  77.6067960  35.9280416  61.1402154  78.1785747  37.3127278
  49.6608062  71.4024460  42.9356239  50.3007441  71.2613219  42.2379202
  48.8285592  71.1158973  42.5594841  61.5235315  79.4842891  41.8670498
  61.9571822  79.3918181  42.7153552  62.2366896  79.4600392  41.2290514
  50.4368366  80.7026890  39.0491231  51.2308964  80.2077210  38.8473806
  49.7260058  80.1744753  38.6858937  55.2563210  83.0844986  43.4003599
  55.3100232  83.6535922  44.1681315  54.3877992  83.2546871  43.0357636
  46.7451129  74.8469972  35.1250984  45.8148717  74.7854427  35.3420946
  46.8408601  74.3245925  34.3287625  46.6636678  71.3724785  37.7129226
  46.9243495  72.2870118  37.6038386  47.4853851  70.9049227  37.8625839
  48.1361604  72.7862542  44.8828050  48.8084657  72.5779904  44.2340699
  47.3091390  72.5884628  44.4433283  62.3850865  79.5266592  44.4003384
  62.5786755  80.4312403  44.6462659  62.2851483  79.0674011  45.2341969
  57.4465973  79.6773335  49.9744264  57.2951480  79.4483887  49.0574348
  57.4370653  80.6343936  49.9875609  54.2151310  77.2505248  44.9590531
  55.1443370  77.4016407  44.7859498  53.7942340  77.3389268  44.1039177
  53.0139642  81.2755912  42.7289068  52.8750727  80.9074696  43.6015007
  52.2254238  81.7903551  42.5573026  53.6087794  86.3765009  34.0714605
  53.7839549  85.9053052  34.8860228  52.9220582  87.0030775  34.2995866
  54.5644857  80.6537515  40.1177906  54.2294689  80.6138285  41.0135556
  54.0648802  79.9882231  39.6448316  48.5389101  76.0605145  45.6430487
  48.4008899  75.3285384  46.2442026  49.4494024  75.9714045  45.3614675
  57.5004048  77.9993549  30.3914966  56.8833219  77.2740377  30.2948019
  57.0320537  78.7602909  30.0482040  51.1671401  75.7725104  45.1314167
  51.8771020  75.1318296  45.0900785  51.1240710  76.0237999  46.0540348
  59.1558180  82.7092457  48.0520746  59.0970726  82.0251678  47.3851329
  59.5577699  83.4511447  47.6001372  49.8800335  72.7590322  46.9509807
  49.3437692  72.3081060  47.6031403  49.2917044  72.8936231  46.2080271
  48.1748879  89.5254371  40.8454465  48.4145477  90.1572895  41.5233484
  47.3318075  89.1742411  41.1319824  49.2902594  72.2178973  29.5136270
  48.4132061  72.0967774  29.1498517  49.7660347  71.4265052  29.2615159
  59.1575587  80.6732041  46.2834726  58.2702366  80.3357963  46.4061125
  59.7274138  79.9415073  46.5203491  40.8104735  77.0056133  39.6077777
  41.4975774  76.6917863  39.0198793  40.6552863  77.9097498  39.3345029
  45.6139457  71.8946330  44.0362801  45.5297645  71.2871999  43.3013211
  44.7922163  72.3855348  44.0372297  52.6876741  85.3333494  43.2495969
  52.6146912  86.1388465  43.7615274  52.2454134  85.5325460  42.4243991
  52.4766520  84.5705264  36.7598791  51.6934042  85.1126944  36.8537015
  53.1759266  85.0879243  37.1593032  55.7863171  70.3799893  39.4032996
  56.2831870  69.6269856  39.0834066  55.0150152  70.4164210  38.8376205
  63.6392928  76.0840259  41.0451288  63.6282804  76.9664974  40.6745221
  62.7710307  75.7311810  40.8505825  55.1475424  85.2320328  45.4054128
  55.8603397  85.8667793  45.3330029  54.6565453  85.3284194  44.5894130
  56.8692951  79.1371580  36.9771419  55.9349230  79.2573043  36.8076124
  57.0469620  78.2344047  36.7131429  52.3698139  72.5217276  39.1304681
  51.9995927  71.9688317  39.8185586  52.8657232  71.9175410  38.5779681
  60.2565503  74.9788900  37.5121454  60.7225955  75.8116891  37.4381756
  60.7073003  74.5133881  38.2166712  50.1987338  82.9814771  46.2259699
  50.8996797  83.6151254  46.3789093  49.7282453  83.3229503  45.4655338
  58.3241734  81.3232721  34.5107606  58.6001578  81.2089316  35.4201480
  57.4546232  80.9250206  34.4719779  58.2282165  67.3469487  41.5512355
  57.3145245  67.5773714  41.7194562  58.6575267  67.4307931  42.4026387
  57.9988624  75.5359379  44.0512249  57.3460074  75.7835286  43.3964702
  58.3769004  74.7223517  43.7174726  54.9595798  85.5719072  38.1540419
  55.1418192  84.7540728  38.6168172  55.7828784  85.7886764  37.7165309
  55.2937963  84.4987257  35.4155468  55.8225730  83.9879712  34.8025630
  55.5566183  84.1829787  36.2801001  45.7955056  82.5151126  43.1590801
  46.3808493  81.7694814  43.2918705  45.5979894  82.8255083  44.0427465
  48.6493711  85.5502374  38.1753244  47.9804086  86.0348501  37.6917284
  48.5106581  85.7971594  39.0896622  40.3872711  75.0856726  41.8795244
  40.4256810  74.5520317  42.6732363  39.8813003  74.5591932  41.2606222
  52.7898980  87.5846117  44.7735902  53.3417288  87.7477739  45.5384987
  53.1305173  88.1750555  44.1015927  57.6409854  82.4107375  50.6284556
  58.1849758  83.0237333  50.1339511  57.0596699  82.9686953  51.1451569
  44.0181288  73.8120829  34.9549176  44.3134729  72.9031507  34.9016230
  43.1169324  73.7908568  34.6330178  55.9267367  85.5328093  41.7599584
  55.8018506  84.7317833  41.2510530  56.5846458  86.0274286  41.2713554
  47.5475535  71.8876825  40.9376724  46.8262121  72.5012793  40.7984198
  48.3368791  72.4234590  40.8593370  57.9902275  83.3337113  43.3879134
  57.0432611  83.2142464  43.3157461  58.3385048  82.4459611  43.4705396
  45.7469130  71.4934926  35.0788501  45.4181836  70.6132305  34.8963607
  46.1008500  71.4382595  35.9664890  54.9948709  83.1289829  39.5883487
  54.8473671  82.2006536  39.7691057  55.8202202  83.1509920  39.1040562
  48.8610953  71.7807896  35.4463979  49.2007025  72.3093817  34.7242587
  49.3083073  72.1188302  36.2222545  58.5982831  83.9518388  40.6748359
  59.5229378  83.7461249  40.5372810  58.4298134  83.7034789  41.5837701
  51.5554394  70.1644947  44.8967047  51.2151214  69.3652760  45.2987727
  50.8493400  70.4646658  44.3243880  52.2070866  67.2494259  43.3494370
  53.0296935  66.7754737  43.2273260  52.4508929  68.0284743  43.8493056
  50.8479100  70.2782518  33.6457271  51.5687463  70.6563770  33.1420988
  50.2244404  70.9971394  33.7492249  54.9910223  70.9827667  34.5815604
  55.2073837  71.8652305  34.2804432  54.5104290  70.5913880  33.8521246
  49.7309444  73.9413380  41.1586348  49.5854025  74.2553683  42.0510630
  49.2534648  74.5598280  40.6057247  51.5905827  70.9315928  41.2067238
  51.5767396  70.0357021  40.8699536  52.3078255  70.9386592  41.8405524
  53.4431958  71.3653268  43.2520365  53.1849736  72.2870339  43.2504696
  52.9116998  70.9683703  43.9420829  58.3878147  84.4704055  36.0310451
  58.5615024  83.9050478  35.2784303  58.8807038  85.2704950  35.8489941
  44.2055107  76.4818724  44.0974010  43.6608575  77.2578532  44.2294284
  45.0834456  76.8289529  43.9393131  50.9942723  69.8130308  36.4754808
  51.1158634  68.8846954  36.6745696  50.7044766  69.8268994  35.5633123
  53.8633914  67.4985219  39.6121528  53.8855610  67.5624552  38.6573507
  54.2801973  66.6589727  39.8062034  64.2417538  77.2340478  37.6500750
  64.6848684  76.4847803  37.2519874  63.3644048  77.2250614  37.2674482
  59.3753319  83.7870820  33.1307349  60.0704224  84.4077512  33.3494664
  59.7176469  82.9366171  33.4059727  44.9921128  75.6088621  46.9904166
  44.2502864  75.7571256  47.5768797  44.6713873  75.8696886  46.1270916
  61.2744742  81.2370525  34.6594680  61.7996066  81.5757798  33.9344000
  61.1867095  80.3017540  34.4757814  52.9364791  85.1504599  46.7884556
  53.2451917  84.9053746  47.6607256  53.7340273  85.3551237  46.3003427
  52.9585403  87.3042508  39.0189933  52.5190393  86.8118887  39.7122790
  53.7093520  86.7615476  38.7782008  45.4377742  83.4954049  39.0214561
  46.2635762  83.1957821  38.6413205  45.0871794  82.7261672  39.4704350
  50.4059275  82.8480517  41.0912235  49.7839285  82.1851222  40.7914462
  51.0764142  82.8741649  40.4085882  43.6386347  81.4140376  39.9803495
  42.8018255  80.9862550  39.7987496  43.6109993  81.6072819  40.9174286
  60.9638648  81.8703429  49.9645878  60.1734192  81.8527568  49.4250377
  60.7272003  82.4091722  50.7194914  61.0836523  78.7195895  47.2778606
  61.1334528  78.5545903  48.2194129  60.9750447  77.8523154  46.8876487
  49.9672782  81.3984441  34.5670695  50.1160903  82.0819905  33.9137368
  50.7739226  81.3789531  35.0820151  58.3740286  74.7026823  48.5937913
  59.2750149  74.5633288  48.3021911  58.4488260  74.8681278  49.5336090
  62.5854720  81.1392837  47.5220628  62.2939529  81.5022817  48.3584089
  61.9726852  80.4259845  47.3433960  63.7850403  78.7045716  40.0423198
  64.6197294  79.1435520  40.2060758  63.9209531  78.2284370  39.2231444
  60.8341909  76.2625451  45.9900686  61.3096030  76.4553098  45.1819537
  59.9107474  76.3184637  45.7444069  47.7225415  77.4249618  35.5731764
  47.4771457  76.5211948  35.7711974  47.8921330  77.4266769  34.6311242
  46.9921063  73.1577976  33.0717926  46.2990308  73.2322331  32.4157962
  46.7472815  72.3938320  33.5939442  53.4668188  83.8932571  32.0382443
  52.8942155  84.5122758  31.5852914  54.0400981  84.4431933  32.5722365
  59.5343578  73.1391211  44.2228991  60.4861000  73.2389309  44.2441215
  59.3647028  72.3469480  44.7327076  57.5557957  70.2246795  44.4088392
  56.9607889  70.5051807  43.7134881  57.2707654  70.7140695  45.1805133
  56.6865447  84.1769721  33.1691025  57.6196121  84.1115283  33.3723900
  56.5988660  85.0125988  32.7105558  59.3153464  83.4935592  30.1294972
  59.2367096  83.1595455  31.0230730  60.1363131  83.9857360  30.1286445
  62.0131655  76.3597331  43.3371291  61.9807975  75.4213332  43.5230975
  62.6232279  76.4381368  42.6037116  53.8514986  75.2293384  29.3798495
  54.7974091  75.0999592  29.4486913  53.4729231  74.4908046  29.8567923
  62.1626144  73.1508374  43.3829574  61.6465192  72.3666831  43.1959503
  63.0466092  72.8227091  43.5476094  59.8236871  66.8949390  39.3425387
  59.6261692  66.5864478  40.2268719  60.4336576  67.6211029  39.4723317
  67.8308205  77.4213338  42.4777328  68.5611594  77.1598626  43.0385031
  67.2215151  76.6842060  42.5179396  65.9123502  75.5621200  43.0751779
  65.1856666  75.4277165  42.4668271  65.4970789  75.8698029  43.8808497
  52.0357903  73.1543360  29.3153380  51.1289359  72.8576473  29.3916094
  52.3133884  72.8573178  28.4487667  42.9535844  74.4749724  39.7652427
  42.6338628  73.6215032  39.4726801  42.4069272  74.6898302  40.5210394
  46.7315751  77.1912165  43.4821933  46.9501761  78.1229273  43.5009967
  47.1441525  76.8320139  44.2676737  53.6519969  67.6980250  35.4697622
  52.8420697  67.3527335  35.8452868  54.3404386  67.3887794  36.0585233
  55.5810517  66.7758297  37.0921918  56.1341556  67.1953750  37.7511941
  55.8180604  65.8494045  37.1344874  50.8056688  70.0130296  29.4565360
  51.6675852  70.3385194  29.7161177  50.9907032  69.2261792  28.9438425
  42.8224104  78.0952635  41.7345548  42.1287575  77.6806588  41.2215503
  43.5697095  78.1373172  41.1378967  58.9589324  68.8858822  36.6000583
  58.3787993  69.5443626  36.2178635  58.6925257  68.0636167  36.1888000
  57.4092891  68.2863880  38.8021903  57.9092669  68.3980414  37.9936222
  58.0528499  67.9824933  39.4422711  44.7360846  78.0270889  39.6111563
  44.7131534  78.1258576  38.6593446  45.0461483  78.8736040  39.9328729
  47.3948224  80.0847044  43.7258178  48.3491478  80.0530986  43.6588109
  47.1960748  79.6237668  44.5408404  47.9847606  78.6548160  46.2928975
  48.8040495  79.1492239  46.3163813  48.2584414  77.7380128  46.2646543
  57.7414202  71.0458912  35.6556931  56.8540057  71.3308563  35.4377126
  58.1568192  70.8852676  34.8084208  61.0928739  71.0705433  39.3711270
  61.8689129  71.5601886  39.6435887  60.3676873  71.4963488  39.8283140
  63.5301297  71.7833053  40.4285211  64.1245788  71.5428789  39.7178519
  63.6027881  71.0640183  41.0558747  45.7498453  85.6266664  40.7428375
  45.6152921  84.8667064  40.1766374  45.3330515  86.3507563  40.2757164
  56.8857416  80.8103587  29.7504951  57.5893266  81.0153590  30.3662606
  56.1620065  81.3780349  30.0154034  57.7155226  76.5613448  35.8707221
  57.6590428  77.0182000  35.0314853  58.2683569  75.8004133  35.6930064
  61.5260032  72.3503180  36.6957340  61.2696966  71.9499816  37.5265548
  60.9012900  73.0646974  36.5707480  65.8372370  75.0899254  39.2028632
  65.2771928  75.1592443  39.9760194  65.2315873  74.9140238  38.4828128
  48.9067579  86.5235981  40.9546818  48.7899963  87.4681413  40.8525508
  48.0860025  86.2209542  41.3432617  58.7944113  81.2486116  31.8003411
  59.6289717  80.8167315  31.6180886  58.6328456  81.0768130  32.7280305
  58.4490005  77.7518230  33.1659750  58.3938809  77.5862501  32.2248194
  57.8236061  78.4594263  33.3221940  43.2382520  72.9886294  46.9921172
  43.8841384  72.4785248  47.4808397  43.0299672  73.7254976  47.5664598
  51.7586131  67.2526339  32.7445069  51.7464801  68.1968179  32.9013339
  52.6509553  67.0696484  32.4504530  49.9322093  87.1764243  44.1702747
  50.8349340  87.2087853  44.4869241  49.7059463  86.2464693  44.1849082
  51.6875695  85.9295229  40.8312825  50.7371326  85.9297091  40.7177197
  51.9908181  85.1827964  40.3148860  67.4228388  91.7655767  41.8958588
  68.0606798  91.6462515  41.1921928  67.3049231  92.7136611  41.9546540
  64.2318095  91.7183196  41.8320112  63.8936606  91.6024260  40.9440647
  65.1007863  91.3174361  41.8121118  60.0904910  93.5718672  37.8217003
  59.5269776  93.4808609  37.0533291  59.9757305  92.7518576  38.3019496
  64.7137878  92.8718047  47.7906318  64.7026518  92.4770846  46.9186821
  64.8758517  92.1384120  48.3840089  57.6369342  95.0669864  40.6601224
  58.4290634  94.7260688  40.2447523  57.8765992  95.1764839  41.5803377
  65.6704469  97.2389640  33.1331468  65.0192449  97.8243720  32.7465482
  66.4648832  97.7695835  33.1926506  59.5960096  94.3278777  33.5318602
  60.3690972  93.7807764  33.3931478  59.9485495  95.1923026  33.7433064
  61.4345139  95.6555159  46.7385502  61.1435005  96.5600790  46.6232168
  62.0702123  95.6971687  47.4529571  62.3601346  93.0332008  43.3286861
  62.9564918  92.8088030  42.6143824  62.4176317  92.2916753  43.9312309
  61.9326374  90.4871443  31.1637052  62.1851895  89.9652964  30.4020515
  60.9950933  90.3237588  31.2663736  66.9769657  89.4907221  38.9711796
  67.7632746  89.0726644  38.6202213  67.2408361  90.3953313  39.1393444
  67.1479734  94.9280072  33.6700452  66.5125567  95.0014698  34.3821357
  66.8177141  95.5173670  32.9919532  72.3778084  89.4282455  39.8744774
  73.1103256  88.8581671  40.1082604  71.6217440  89.0404055  40.3151280
  61.6522663  92.3899549  33.3661427  61.5358921  91.7144452  34.0342512
  61.7624923  91.9031923  32.5493580  63.9954204  91.8509696  37.0708117
  63.6312411  91.3240317  37.7821038  64.8521320  91.4608165  36.8974602
  69.9003504  83.1404029  44.3339383  69.5686829  84.0099440  44.1100598
  69.3049118  82.8240313  45.0133413  63.6359691  86.8799596  32.0669465
  63.8034093  87.7479832  32.4339936  63.4456860  87.0426877  31.1430754
  66.3935024  95.3416575  43.7335295  66.0935747  96.2441613  43.6251103
  66.0486083  95.0748758  44.5856448  59.8447505  91.7930371  39.7672000
  58.9198002  91.6606586  39.9749692  60.0931919  92.5724591  40.2641942
  69.7932168  87.8599115  41.4132733  68.8849045  87.7914523  41.1191494
  69.7419763  88.3371060  42.2414558  63.6148912  89.3357253  33.0516132
  63.4948537  89.7814304  33.8901612  62.9201500  89.6842571  32.4929670
  57.2056316  91.4363645  40.6015789  57.3348698  91.6898124  41.5155201
  56.5253768  92.0291353  40.2820444  61.3755804 102.1060895  36.7006263
  61.2979833 103.0568720  36.7794744  60.7717447 101.7606767  37.3581189
  63.8673033  89.2788760  49.3567630  63.0906368  89.8382681  49.3470495
  64.5063597  89.7645543  49.8782500  71.6593814  86.0615553  43.1910607
  71.0168194  86.3548086  42.5450401  71.1548743  85.9468474  43.9963803
  69.3133978  89.8078726  33.8796466  70.2251834  90.0406113  33.7044163
  68.8043625  90.3915771  33.3171545  62.1219406  92.0874214  48.9185597
  62.8634090  92.6259258  48.6420421  61.4156391  92.7140502  49.0757149
  67.5974745  94.2303354  47.5157759  68.0058101  93.7885765  46.7712391
  66.8752007  93.6555982  47.7691951  63.9505815  89.1675961  44.8891315
  64.7967011  89.5915375  45.0325964  63.8904453  88.5109585  45.5829879
  67.9203560  94.7904545  41.2710047  67.2912422  94.9550259  40.5686115
  67.5329222  95.2046154  42.0421011  71.7992792  95.7258983  38.6254411
  71.1143830  96.1057884  38.0751444  71.8836641  96.3354309  39.3586359
  67.1005261  86.8280329  46.5472489  66.8566193  87.5822390  46.0106765
  67.3765191  87.2065677  47.3819736  69.0543724  93.3718942  45.2249755
  69.2660619  94.0150702  44.5484136  69.0073472  92.5381258  44.7571685
  66.6569953  85.9836762  42.1286327  65.7954432  86.2818016  42.4203064
  66.6832387  86.2007161  41.1967359  63.4731522  94.5278953  38.5360133
  63.9369867  94.8066656  37.7464755  63.2088320  93.6262397  38.3533223
  60.3655603  94.0750434  41.4739896  60.9356960  94.5037703  40.8357380
  60.9563715  93.7933019  42.1724081  62.4100408  90.6502105  35.3449698
  63.1124451  91.1023149  35.8123624  62.0781036  90.0085924  35.9729591
  60.8580770  89.2413862  49.7200907  60.2279430  89.9230143  49.9536304
  60.7516857  89.1296944  48.7754045  56.1525742  88.9085658  40.6466831
  55.3624796  89.1643186  40.1706942  56.6436989  89.7233996  40.7518872
  70.1689552  96.2490897  43.3972112  70.9906995  95.8471084  43.1154794
  70.1651954  96.1459131  44.3488228  58.1040487  89.2730237  37.6050308
  57.3071651  89.3848931  38.1233804  57.8766080  89.6116889  36.7391198
  63.9346155  95.7974940  45.5532823  63.9990587  96.2595348  46.3890994
  63.2257079  95.1672305  45.6815132  54.4363445  89.1616148  43.0781822
  54.6871483  90.0463158  43.3439398  54.9722993  88.9820750  42.3056914
  78.2595545  92.5929646  39.7457084  77.5059253  92.0237044  39.5901088
  78.3943086  92.5592310  40.6927718  63.6494173  97.4643048  35.4211803
  63.5139847  98.3094584  35.8496651  64.1903985  97.6662326  34.6577737
  60.1361512  83.5434628  52.0826158  59.7428458  82.9900826  52.7573802
  60.9527653  83.8545206  52.4732676  57.1023570  94.9818486  35.9939728
  57.6148091  95.7761736  36.1445293  57.7546283  94.2844776  35.9273329
  58.9118455  98.0984242  38.0762481  59.0885083  99.0202207  37.8883465
  59.7075288  97.7842661  38.5056861  63.0529473  84.9592507  49.6746415
  63.7939187  85.5599660  49.5950877  63.2847396  84.2170145  49.1164457
  58.1970811  90.1448874  47.9524644  58.0824326  89.2434131  48.2531743
  57.3415329  90.3912571  47.6009461  65.2762649  98.0866614  49.5512145
  64.8326503  97.3002993  49.2333049  65.9379863  98.2745765  48.8856036
  60.0349770  99.6162416  44.0772823  60.5857195  99.4879479  43.3049817
  59.1961246  99.9157305  43.7267716  67.3743887  98.3669414  47.5793546
  67.3562362  99.1878295  47.0873815  68.2963807  98.2423490  47.8043687
  63.8316941  95.8813544  48.4217055  64.3645278  95.1201832  48.1916363
  63.3031022  95.5887196  49.1641209  66.9986636  80.9873610  43.9510696
  66.6550906  81.8775251  43.8749807  67.3665599  80.7975267  43.0880281
  55.0672487  93.3107140  36.7699298  55.9047709  93.7204149  36.5533006
  55.2450754  92.3706582  36.7399492  66.9636919  90.9782221  32.4583131
  66.4483542  91.7486826  32.6971519  66.6914227  90.3047357  33.0816193
  64.5484030  85.8231922  37.5168370  63.6925626  85.4338772  37.3374009
  64.9610982  85.9023882  36.6568155  66.0783177  83.3578265  41.9159930
  65.5747972  83.3208400  41.1027735  66.3713783  84.2671008  41.9756586
  62.3226062  83.4416995  40.9226111  63.1879059  83.2459803  40.5632001
  62.3903571  83.2127346  41.8495468  71.9371193  93.7314576  34.3936305
  71.1600636  93.3925735  33.9491467  72.6162674  93.7367199  33.7191270
  66.7523222  88.8509313  34.2842913  66.4473358  89.1655462  35.1353056
  67.7053664  88.9290733  34.3270246  65.1969654  95.0099536  35.9335867
  64.6691015  94.2752296  35.6209104  64.6957157  95.7874213  35.6875835
  70.1762500  93.2048557  41.0502913  69.5186174  93.8947818  41.1383042
  70.9802899  93.5944989  41.3936899  59.9288382  85.6719203  38.2942478
  60.5032133  85.4494384  37.5615671  60.5159364  85.7407897  39.0471079
  68.9867959  91.5592929  39.1006855  69.4999840  92.1922921  39.6028564
  69.6369183  90.9594125  38.7350215  60.2557969  87.7023664  32.3138363
  59.4195281  88.0398350  32.6347638  60.1162738  87.5672643  31.3765500
  62.2311049  82.5460451  37.0217548  61.5775462  82.2309469  36.3974162
  62.1891523  81.9236192  37.7477370  63.3422254  92.8279747  28.9370840
  62.4349316  92.5969000  29.1361989  63.8393286  92.0317366  29.1244821
  66.2490333 101.5377254  31.8567526  65.5752032 101.8408951  32.4652484
  66.6356155 102.3406334  31.5072983  65.4648790  89.0342385  41.3465195
  64.5471351  89.2557332  41.1886883  65.8808933  89.1088696  40.4876903
  66.2483837  90.4333801  36.4767875  66.9955656  90.9455198  36.1674997
  66.5175427  90.1117853  37.3372269  64.5210488  92.9292341  33.4594830
  63.6121707  92.6451374  33.5567299  64.5505571  93.3491420  32.5998137
  69.7529755  96.5398931  37.2285997  69.2992082  95.6989841  37.2851188
  69.1223722  97.1760329  37.5660777  68.6962675  87.4690917  38.4586665
  67.9585431  86.9568303  38.7896907  68.9489448  87.0291299  37.6469942
  68.1962694  98.3775428  38.1635815  68.4885669  98.9380485  37.4448181
  68.7061315  98.6703989  38.9188975  68.7974302  80.2467169  39.0528434
  69.1033179  79.3864532  38.7654349  69.5226907  80.8384789  38.8527428
  55.0898658  90.6497856  37.4410032  54.8923058  90.0567216  36.7161098
  54.5345322  90.3450066  38.1585971  63.0695382  90.5420962  39.5604625
  63.1243991  89.5894798  39.4847102  62.2586584  90.6980401  40.0445923
  64.2186575  94.4701085  30.7982908  63.7806005  93.7536944  30.3388546
  64.9597016  94.6977200  30.2368000  61.0087741  89.1598022  37.3195004
  60.1955607  89.4592192  37.7260196  61.5046736  88.7653711  38.0369486
  63.1596319  99.1555779  39.2529269  63.1172498  99.3816625  38.3237801
  64.0759018  98.9219153  39.4015070  66.6061953  89.6239846  46.1509898
  66.9611341  89.8511319  47.0104364  67.2534084  89.9558223  45.5287153
  72.3359690  92.7458282  36.8559227  72.1977589  92.9359878  35.9280416
  71.9795909  93.5077665  37.3127278  60.5001816  86.7316377  42.9356239
  61.1401196  86.5905136  42.2379202  59.6679347  86.4450891  42.5594841
  72.3629070  94.8134809  41.8670498  72.7965576  94.7210098  42.7153552
  73.0760650  94.7892310  41.2290514  61.2762120  96.0318808  39.0491231
  62.0702719  95.5369128  38.8473806  60.5653813  95.5036671  38.6858937
  66.0956965  98.4136903  43.4003599  66.1493987  98.9827840  44.1681315
  65.2271746  98.5838788  43.0357636  57.5844884  90.1761889  35.1250984
  56.6542472  90.1146345  35.3420946  57.6802356  89.6537842  34.3287625
  57.5030433  86.7016702  37.7129226  57.7637250  87.6162036  37.6038386
  58.3247605  86.2341145  37.8625839  58.9755358  88.1154459  44.8828050
  59.6478411  87.9071822  44.2340699  58.1485145  87.9176545  44.4433283
  73.2244619  94.8558510  44.4003384  73.4180509  95.7604320  44.6462659
  73.1245237  94.3965929  45.2341969  64.8780930  84.7416400  46.8993711
  64.2308845  85.4406350  46.8058188  65.6481945  85.1752544  47.2669959
  68.2859728  95.0065253  49.9744264  68.1345234  94.7775804  49.0574348
  68.2764407  95.9635854  49.9875609  65.0545064  92.5797165  44.9590531
  65.9837124  92.7308325  44.7859498  64.6336094  92.6681186  44.1039177
  63.8533396  96.6047830  42.7289068  63.7144482  96.2366614  43.6015007
  63.0647992  97.1195469  42.5573026  64.4481548 101.7056926  34.0714605
  64.6233304 101.2344969  34.8860228  63.7614336 102.3322692  34.2995866
  65.4038611  95.9829432  40.1177906  65.0688444  95.9430202  41.0135556
  64.9042557  95.3174148  39.6448316  59.3782855  91.3897062  45.6430487
  59.2402653  90.6577301  46.2442026  60.2887779  91.3005963  45.3614675
  68.3397803  93.3285467  30.3914966  67.7226974  92.6032295  30.2948019
  67.8714291  94.0894827  30.0482040  62.0065156  91.1017022  45.1314167
  62.7164774  90.4610214  45.0900785  61.9634464  91.3529917  46.0540348
  69.9951935  98.0384375  48.0520746  69.9364481  97.3543595  47.3851329
  70.3971453  98.7803365  47.6001372  60.7194090  88.0882240  46.9509807
  60.1831447  87.6372978  47.6031403  60.1310798  88.2228148  46.2080271
  59.0142633 104.8546289  40.8454465  59.2539232 105.4864813  41.5233484
  58.1711830 104.5034329  41.1319824  60.1296349  87.5470891  29.5136270
  59.2525815  87.4259692  29.1498517  60.6054102  86.7556969  29.2615159
  69.9969342  96.0023959  46.2834726  69.1096121  95.6649881  46.4061125
  70.5667893  95.2706990  46.5203491  51.6498489  92.3348051  39.6077777
  52.3369529  92.0209781  39.0198793  51.4946618  93.2389415  39.3345029
  56.4533211  87.2238247  44.0362801  56.3691400  86.6163917  43.3013211
  55.6315918  87.7147266  44.0372297  63.5270495 100.6625411  43.2495969
  63.4540667 101.4680383  43.7615274  63.0847888 100.8617377  42.4243991
  63.3160275  99.8997181  36.7598791  62.5327797 100.4418862  36.8537015
  64.0153020 100.4171161  37.1593032  66.6256925  85.7091811  39.4032996
  67.1225625  84.9561773  39.0834066  65.8543907  85.7456128  38.8376205
  74.4786682  91.4132176  41.0451288  74.4676559  92.2956892  40.6745221
  73.6104062  91.0603727  40.8505825  65.9869179 100.5612245  45.4054128
  66.6997151 101.1959710  45.3330029  65.4959207 100.6576111  44.5894130
  67.7086706  94.4663498  36.9771419  66.7742984  94.5864961  36.8076124
  67.8863374  93.5635965  36.7131429  63.2091894  87.8509194  39.1304681
  62.8389681  87.2980234  39.8185586  63.7050986  87.2467327  38.5779681
  71.0959257  90.3080817  37.5121454  71.5619709  91.1408809  37.4381756
  71.5466758  89.8425799  38.2166712  61.0381092  98.3106689  46.2259699
  61.7390552  98.9443172  46.3789093  60.5676207  98.6521420  45.4655338
  69.1635488  96.6524639  34.5107606  69.4395332  96.5381233  35.4201480
  68.2939987  96.2542124  34.4719779  69.0675920  82.6761404  41.5512355
  68.1539000  82.9065631  41.7194562  69.4969021  82.7599848  42.4026387
  68.8382378  90.8651296  44.0512249  68.1853829  91.1127204  43.3964702
  69.2162758  90.0515435  43.7174726  65.7989552 100.9010990  38.1540419
  65.9811947 100.0832645  38.6168172  66.6222538 101.1178682  37.7165309
  66.1331718  99.8279175  35.4155468  66.6619484  99.3171629  34.8025630
  66.3959937  99.5121705  36.2801001  64.8869951  91.6071107  50.5378286
  64.2110588  91.5065237  51.2080661  65.7097585  91.4510321  51.0014283
  56.6348810  97.8443044  43.1590801  57.2202247  97.0986732  43.2918705
  56.4373649  98.1547001  44.0427465  59.4887466 100.8794291  38.1753244
  58.8197841 101.3640419  37.6917284  59.3500335 101.1263512  39.0896622
  51.2266465  90.4148644  41.8795244  51.2650565  89.8812235  42.6732363
  50.7206758  89.8883850  41.2606222  63.6292734 102.9138035  44.7735902
  64.1811042 103.0769656  45.5384987  63.9698928 103.5042473  44.1015927
  58.6057227  85.2613185  45.3757787  58.6698554  86.1228016  44.9635184
  58.5424348  84.6487186  44.6430145  58.0809500  87.3336317  49.0230821
  58.7081539  86.9513395  49.6368345  57.2237419  87.1150519  49.3886514
  68.4803609  97.7399292  50.6284556  69.0243512  98.3529251  50.1339511
  67.8990453  98.2978871  51.1451569  54.8575043  89.1412746  34.9549176
  55.1528484  88.2323425  34.9016230  53.9563078  89.1200486  34.6330178
  66.7661121 100.8620010  41.7599584  66.6412261 100.0609750  41.2510530
  67.4240213 101.3566204  41.2713554  58.3869290  87.2168743  40.9376724
  57.6655875  87.8304711  40.7984198  59.1762545  87.7526508  40.8593370
  68.8296030  98.6629030  43.3879134  67.8826365  98.5434382  43.3157461
  69.1778803  97.7751528  43.4705396  61.1895603  84.5523169  47.2117376
  61.7130005  84.7985466  47.9743685  60.9707936  85.3843204  46.7920514
  56.5862884  86.8226844  35.0788501  56.2575590  85.9424223  34.8963607
  56.9402255  86.7674513  35.9664890  65.8342463  98.4581747  39.5883487
  65.6867426  97.5298454  39.7691057  66.6595957  98.4801837  39.1040562
  59.7004707  87.1099814  35.4463979  60.0400780  87.6385735  34.7242587
  60.1476828  87.4480220  36.2222545  69.4376585  99.2810305  40.6748359
  70.3623132  99.0753167  40.5372810  69.2691888  99.0326707  41.5837701
  62.3948148  85.4936864  44.8967047  62.0544969  84.6944678  45.2987727
  61.6887155  85.7938575  44.3243880  63.0464620  82.5786177  43.3494370
  63.8690689  82.1046655  43.2273260  63.2902684  83.3576661  43.8493056
  61.6872855  85.6074435  33.6457271  62.4081217  85.9855688  33.1420988
  61.0638159  86.3263312  33.7492249  65.8303977  86.3119584  34.5815604
  66.0467592  87.1944222  34.2804432  65.3498045  85.9205798  33.8521246
  60.5703199  89.2705298  41.1586348  60.4247780  89.5845601  42.0510630
  60.0928402  89.8890198  40.6057247  62.4299582  86.2607846  41.2067238
  62.4161150  85.3648939  40.8699536  63.1472010  86.2678509  41.8405524
  64.2825712  86.6945186  43.2520365  64.0243490  87.6162256  43.2504696
  63.7510753  86.2975620  43.9420829  69.2271901  99.7995973  36.0310451
  69.4008779  99.2342395  35.2784303  69.7200792 100.5996868  35.8489941
  55.0448861  91.8110642  44.0974010  54.5002329  92.5870450  44.2294284
  55.9228211  92.1581446  43.9393131  61.8336478  85.1422226  36.4754808
  61.9552389  84.2138872  36.6745696  61.5438520  85.1560912  35.5633123
  64.7027668  82.8277136  39.6121528  64.7249365  82.8916469  38.6573507
  65.1195727  81.9881645  39.8062034  75.0811292  92.5632396  37.6500750
  75.5242438  91.8139721  37.2519874  74.2037803  92.5542532  37.2674482
  70.2147074  99.1162737  33.1307349  70.9097978  99.7369430  33.3494664
  70.5570224  98.2658088  33.4059727  55.8314883  90.9380538  46.9904166
  55.0896619  91.0863174  47.5768797  55.5107627  91.1988804  46.1270916
  72.1138497  96.5662443  34.6594680  72.6389821  96.9049716  33.9344000
  72.0260849  95.6309458  34.4757814  63.7758546 100.4796516  46.7884556
  64.0845672 100.2345663  47.6607256  64.5734028 100.6843155  46.3003427
  63.7979158 102.6334426  39.0189933  63.3584148 102.1410805  39.7122790
  64.5487275 102.0907394  38.7782008  56.2771497  98.8245967  39.0214561
  57.1029516  98.5249739  38.6413205  55.9265549  98.0553589  39.4704350
  61.2453030  98.1772435  41.0912235  60.6233039  97.5143140  40.7914462
  61.9157897  98.2033567  40.4085882  54.4780102  96.7432293  39.9803495
  53.6412010  96.3154468  39.7987496  54.4503747  96.9364737  40.9174286
  61.3177557  86.6554223  50.6844741  61.3665713  87.5316346  50.3022510
  61.8600071  86.1131616  50.1116384  71.8032403  97.1995346  49.9645878
  71.0127947  97.1819485  49.4250377  71.5665757  97.7383640  50.7194914
  71.9230278  94.0487813  47.2778606  71.9728283  93.8837820  48.2194129
  71.8144201  93.1815072  46.8876487  60.8066537  96.7276359  34.5670695
  60.9554657  97.4111823  33.9137368  61.6132980  96.7081449  35.0820151
  69.2134040  90.0318741  48.5937913  70.1143903  89.8925206  48.3021911
  69.2882015  90.1973196  49.5336090  63.5476846  87.4085596  47.4391099
  62.6780155  87.7019162  47.1673688  63.7836326  87.9926041  48.1598363
  73.4248475  96.4684754  47.5220628  73.1333283  96.8314735  48.3584089
  72.8120606  95.7551763  47.3433960  74.6244157  94.0337634  40.0423198
  75.4591048  94.4727438  40.2060758  74.7603286  93.5576287  39.2231444
  71.6735663  91.5917369  45.9900686  72.1489785  91.7845015  45.1819537
  70.7501228  91.6476555  45.7444069  58.5619170  92.7541536  35.5731764
  58.3165212  91.8503866  35.7711974  58.7315084  92.7558687  34.6311242
  66.2515879  83.6265213  44.9556520  66.7697823  84.3626239  44.6303008
  65.8971012  83.9329206  45.7903279  57.8314817  88.4869894  33.0717926
  57.1384062  88.5614249  32.4157962  57.5866569  87.7230237  33.5939442
  66.5028474  80.0465495  40.4757416  66.7830227  79.3788684  41.1017843
  67.2879081  80.2394591  39.9632080  64.3061942  99.2224489  32.0382443
  63.7335909  99.8414676  31.5852914  64.8794736  99.7723851  32.5722365
  70.3737332  88.4683129  44.2228991  71.3254755  88.5681227  44.2441215
  70.2040782  87.6761398  44.7327076  68.3951711  85.5538712  44.4088392
  67.8001644  85.8343725  43.7134881  68.1101408  86.0432613  45.1805133
  67.5259202  99.5061639  33.1691025  68.4589875  99.4407201  33.3723900
  67.4382415 100.3417906  32.7105558  70.1547219  98.8227509  30.1294972
  70.0760850  98.4887373  31.0230730  70.9756885  99.3149277  30.1286445
  72.8525410  91.6889249  43.3371291  72.8201730  90.7505249  43.5230975
  73.4626033  91.7673285  42.6037116  64.6908741  90.5585302  29.3798495
  65.6367845  90.4291510  29.4486913  64.3122986  89.8199964  29.8567923
  73.0019898  88.4800292  43.3829574  72.4858947  87.6958749  43.1959503
  73.8859847  88.1519009  43.5476094  70.6630625  82.2241308  39.3425387
  70.4655446  81.9156396  40.2268719  71.2730331  82.9502947  39.4723317
  78.6701960  92.7505256  42.4777328  79.4005348  92.4890544  43.0385031
  78.0608905  92.0133978  42.5179396  76.7517257  90.8913118  43.0751779
  76.0250420  90.7569083  42.4668271  76.3364544  91.1989947  43.8808497
  64.5747433  94.6103048  50.8399152  65.4950443  94.7881647  51.0339199
  64.5397016  93.6659093  50.6878851  62.8751658  88.4835278  29.3153380
  61.9683113  88.1868391  29.3916094  63.1527639  88.1865096  28.4487667
  53.7929598  89.8041641  39.7652427  53.4732383  88.9506950  39.4726801
  53.2463026  90.0190220  40.5210394  57.5709506  92.5204082  43.4821933
  57.7895516  93.4521190  43.5009967  57.9835280  92.1612057  44.2676737
  64.4913724  83.0272168  35.4697622  63.6814452  82.6819253  35.8452868
  65.1798140  82.7179712  36.0585233  66.4204272  82.1050215  37.0921918
  66.9735310  82.5245668  37.7511941  66.6574358  81.1785963  37.1344874
  62.4437371  88.0937288  52.8724682  62.3434098  89.0431645  52.8036773
  62.2258913  87.7655527  52.0000752  61.6450442  85.3422213  29.4565360
  62.5069606  85.6677112  29.7161177  61.8300787  84.5553709  28.9438425
  53.6617858  93.4244553  41.7345548  52.9681330  93.0098506  41.2215503
  54.4090849  93.4665089  41.1378967  69.7983079  84.2150740  36.6000583
  69.2181748  84.8735544  36.2178635  69.5319012  83.3928084  36.1888000
  68.2486645  83.6155797  38.8021903  68.7486424  83.7272332  37.9936222
  68.8922253  83.3116850  39.4422711  62.3068641  91.5234427  51.6889744
  61.8235723  92.3234787  51.8953633  62.3929580  91.5342372  50.7357188
  55.5754601  93.3562807  39.6111563  55.5525289  93.4550494  38.6593446
  55.8855237  94.2027958  39.9328729  58.2341979  95.4138962  43.7258178
  59.1885232  95.3822904  43.6588109  58.0354502  94.9529586  44.5408404
  58.8241361  93.9840078  46.2928975  59.6434250  94.4784157  46.3163813
  59.0978168  93.0672046  46.2646543  68.5807957  86.3750830  35.6556931
  67.6933812  86.6600481  35.4377126  68.9961946  86.2144594  34.8084208
  71.9322493  86.3997351  39.3711270  72.7082883  86.8893804  39.6435887
  71.2070627  86.8255405  39.8283140  74.3695052  87.1124970  40.4285211
  74.9639542  86.8720706  39.7178519  74.4421635  86.3932101  41.0558747
  56.5892207 100.9558581  40.7428375  56.4546675 100.1958982  40.1766374
  56.1724270 101.6799481  40.2757164  67.7251170  96.1395505  29.7504951
  68.4287021  96.3445507  30.3662606  67.0013819  96.7072267  30.0154034
  68.5548981  91.8905366  35.8707221  68.4984182  92.3473918  35.0314853
  69.1077323  91.1296051  35.6930064  72.3653787  87.6795098  36.6957340
  72.1090721  87.2791734  37.5265548  71.7406655  88.3938892  36.5707480
  76.6766124  90.4191171  39.2028632  76.1165682  90.4884361  39.9760194
  76.0709628  90.2432156  38.4828128  59.7461333 101.8527898  40.9546818
  59.6293717 102.7973331  40.8525508  58.9253780 101.5501460  41.3432617
  69.6337868  96.5778034  31.8003411  70.4683472  96.1459232  31.6180886
  69.4722211  96.4060048  32.7280305  69.2883760  93.0810147  33.1659750
  69.2332564  92.9154419  32.2248194  68.6629815  93.7886180  33.3221940
  54.0776275  88.3178212  46.9921172  54.7235139  87.8077166  47.4808397
  53.8693426  89.0546893  47.5664598  66.6029667  95.3859059  52.4913313
  67.4720827  95.5599711  52.1299948  66.1236419  96.2053476  52.3689042
  62.5979885  82.5818256  32.7445069  62.5858555  83.5260096  32.9013339
  63.4903307  82.3988402  32.4504530  60.7715847 102.5056160  44.1702747
  61.6743094 102.5379770  44.4869241  60.5453217 101.5756611  44.1849082
  62.5269449 101.2587147  40.8312825  61.5765080 101.2589008  40.7177197
  62.8301936 100.5119881  40.3148860  66.4132005  79.1761033  36.9991005
  65.6464401  78.6219520  37.1447688  66.8242710  79.2482902  37.8605157
  58.4173766  85.4645829  51.0896187  59.2805228  85.1082634  51.2999511
  57.8439177  85.1259724  51.7771591  78.2622143 107.0947685  41.8958588
  78.9000553 106.9754432  41.1921928  78.1442986 108.0428529  41.9546540
  75.0711849 107.0475113  41.8320112  74.7330361 106.9316178  40.9440647
  75.9401617 106.6466278  41.8121118  70.9298665 108.9010590  37.8217003
  70.3663530 108.8100527  37.0533291  70.8151060 108.0810494  38.3019496
  75.5531632 108.2009965  47.7906318  75.5420273 107.8062763  46.9186821
  75.7152272 107.4676038  48.3840089  68.4763097 110.3961781  40.6601224
  69.2684389 110.0552606  40.2447523  68.7159747 110.5056756  41.5803377
  70.4353851 109.6570694  33.5318602  71.2084727 109.1099682  33.3931478
  70.7879250 110.5214944  33.7433064  72.2738893 110.9847077  46.7385502
  71.9828759 111.8892708  46.6232168  72.9095878 111.0263604  47.4529571
  73.1995100 108.3623925  43.3286861  73.7958672 108.1379948  42.6143824
  73.2570072 107.6208671  43.9312309  72.7720129 105.8163361  31.1637052
  73.0245649 105.2944882  30.4020515  71.8344688 105.6529506  31.2663736
  77.8163411 104.8199139  38.9711796  78.6026501 104.4018562  38.6202213
  78.0802116 105.7245231  39.1393444  77.9873489 110.2571989  33.6700452
  77.3519322 110.3306616  34.3821357  77.6570895 110.8465588  32.9919532
  83.2171839 104.7574372  39.8744774  83.9497010 104.1873589  40.1082604
  82.4611194 104.3695973  40.3151280  72.4916417 107.7191467  33.3661427
  72.3752675 107.0436370  34.0342512  72.6018677 107.2323841  32.5493580
  74.8347958 107.1801614  37.0708117  74.4706165 106.6532235  37.7821038
  75.6915074 106.7900083  36.8974602  80.7397259  98.4695946  44.3339383
  80.4080584  99.3391357  44.1100598  80.1442872  98.1532230  45.0133413
  74.4753445 102.2091513  32.0669465  74.6427848 103.0771750  32.4339936
  74.2850614 102.3718795  31.1430754  77.2328778 110.6708492  43.7335295
  76.9329501 111.5733531  43.6251103  76.8879838 110.4040675  44.5856448
  70.6841260 107.1222289  39.7672000  69.7591756 106.9898503  39.9749692
  70.9325673 107.9016508  40.2641942  80.6325922 103.1891032  41.4132733
  79.7242800 103.1206441  41.1191494  80.5813518 103.6662977  42.2414558
  74.4542666 104.6649171  33.0516132  74.3342291 105.1106222  33.8901612
  73.7595254 105.0134489  32.4929670  68.0450071 106.7655563  40.6015789
  68.1742452 107.0190042  41.5155201  67.3647522 107.3583271  40.2820444
  74.7066788 104.6080678  49.3567630  73.9300122 105.1674598  49.3470495
  75.3457351 105.0937461  49.8782500  82.4987569 101.3907471  43.1910607
  81.8561949 101.6840004  42.5450401  81.9942497 101.2760391  43.9963803
  80.1527732 105.1370644  33.8796466  81.0645588 105.3698031  33.7044163
  79.6437379 105.7207688  33.3171545  72.9613160 107.4166131  48.9185597
  73.7027845 107.9551175  48.6420421  72.2550146 108.0432420  49.0757149
  78.4368500 109.5595272  47.5157759  78.8451856 109.1177682  46.7712391
  77.7145761 108.9847899  47.7691951  74.7899570 104.4967879  44.8891315
  75.6360765 104.9207292  45.0325964  74.7298208 103.8401503  45.5829879
  78.7597315 110.1196463  41.2710047  78.1306177 110.2842177  40.5686115
  78.3722977 110.5338072  42.0421011  77.9399015 102.1572247  46.5472489
  77.6959947 102.9114308  46.0106765  78.2158946 102.5357595  47.3819736
  79.8937478 108.7010859  45.2249755  80.1054373 109.3442619  44.5484136
  79.8467226 107.8673176  44.7571685  77.4963707 101.3128680  42.1286327
  76.6348186 101.6109934  42.4203064  77.5226142 101.5299079  41.1967359
  74.3125276 109.8570871  38.5360133  74.7763622 110.1358574  37.7464755
  74.0482075 108.9554315  38.3533223  71.2049357 109.4042352  41.4739896
  71.7750715 109.8329621  40.8357380  71.7957469 109.1224937  42.1724081
  73.2494162 105.9794023  35.3449698  73.9518206 106.4315067  35.8123624
  72.9174791 105.3377842  35.9729591  71.6974524 104.5705780  49.7200907
  71.0673185 105.2522060  49.9536304  71.5910612 104.4588861  48.7754045
  66.9919496 104.2377576  40.6466831  66.2018550 104.4935104  40.1706942
  67.4830744 105.0525913  40.7518872  68.9434242 104.6022155  37.6050308
  68.1465405 104.7140849  38.1233804  68.7159834 104.9408807  36.7391198
  74.7739909 111.1266858  45.5532823  74.8384342 111.5887265  46.3890994
  74.0650833 110.4964223  45.6815132  65.2757199 104.4908066  43.0781822
  65.5265238 105.3755076  43.3439398  65.8116748 104.3112668  42.3056914
  74.4887927 112.7934966  35.4211803  74.3533602 113.6386501  35.8496651
  75.0297740 112.9954243  34.6577737  70.9755267  98.8726545  52.0826158
  70.5822212  98.3192744  52.7573802  71.7921407  99.1837124  52.4732676
  67.9417324 110.3110404  35.9939728  68.4541845 111.1053654  36.1445293
  68.5940037 109.6136694  35.9273329  69.7512209 113.4276160  38.0762481
  69.9278838 114.3494125  37.8883465  70.5469043 113.1134579  38.5056861
  73.8923228 100.2884425  49.6746415  74.6332941 100.8891578  49.5950877
  74.1241151  99.5462062  49.1164457  69.0364566 105.4740792  47.9524644
  68.9218081 104.5726049  48.2531743  68.1809083 105.7204489  47.6009461
  70.8743525 114.9454334  44.0772823  71.4250950 114.8171397  43.3049817
  70.0355001 115.2449223  43.7267716  74.6710696 111.2105462  48.4217055
  75.2039032 110.4493750  48.1916363  74.1424777 110.9179113  49.1641209
  77.8380391  96.3165527  43.9510696  77.4944660  97.2067169  43.8749807
  78.2059353  96.1267185  43.0880281  65.9066241 108.6399058  36.7699298
  66.7441463 109.0496066  36.5533006  66.0844509 107.6998500  36.7399492
  77.8030673 106.3074139  32.4583131  77.2877297 107.0778743  32.6971519
  77.5307982 105.6339275  33.0816193  75.3877784 101.1523839  37.5168370
  74.5319381 100.7630690  37.3374009  75.8004736 101.2315800  36.6568155
  76.9176931  98.6870183  41.9159930  76.4141727  98.6500318  41.1027735
  77.2107538  99.5962925  41.9756586  73.1619817  98.7708912  40.9226111
  74.0272814  98.5751721  40.5632001  73.2297326  98.5419264  41.8495468
  77.5916977 104.1801231  34.2842913  77.2867112 104.4947380  35.1353056
  78.5447419 104.2582651  34.3270246  76.0363408 110.3391454  35.9335867
  75.5084770 109.6044214  35.6209104  75.5350911 111.1166130  35.6875835
  70.7682136 101.0011120  38.2942478  71.3425888 100.7786302  37.5615671
  71.3553118 101.0699815  39.0471079  79.8261713 106.8884847  39.1006855
  80.3393595 107.5214839  39.6028564  80.4762937 106.2886043  38.7350215
  71.0951723 103.0315581  32.3138363  70.2589035 103.3690268  32.6347638
  70.9556493 102.8964561  31.3765500  73.0704804  97.8752369  37.0217548
  72.4169216  97.5601386  36.3974162  73.0285278  97.2528110  37.7477370
  74.1816009 108.1571664  28.9370840  73.2743070 107.9260918  29.1361989
  74.6787041 107.3609283  29.1244821  76.3042544 104.3634303  41.3465195
  75.3865105 104.5849250  41.1886883  76.7202688 104.4380613  40.4876903
  77.0877592 105.7625718  36.4767875  77.8349411 106.2747116  36.1674997
  77.3569181 105.4409771  37.3372269  75.3604242 108.2584259  33.4594830
  74.4515461 107.9743292  33.5567299  75.3899326 108.6783338  32.5998137
  79.5356429 102.7982835  38.4586665  78.7979186 102.2860221  38.7896907
  79.7883203 102.3583216  37.6469942  79.6368056  95.5759087  39.0528434
  79.9426933  94.7156450  38.7654349  80.3620661  96.1676707  38.8527428
  65.9292412 105.9789773  37.4410032  65.7316812 105.3859134  36.7161098
  65.3739076 105.6741983  38.1585971  73.9089136 105.8712880  39.5604625
  73.9637746 104.9186716  39.4847102  73.0980338 106.0272319  40.0445923
  71.8481496 104.4889939  37.3195004  71.0349362 104.7884110  37.7260196
  72.3440490 104.0945628  38.0369486  77.4455708 104.9531764  46.1509898
  77.8005095 105.1803237  47.0104364  78.0927839 105.2850141  45.5287153
  71.3395571 102.0608295  42.9356239  71.9794950 101.9197054  42.2379202
  70.5073101 101.7742808  42.5594841  72.1155875 111.3610725  39.0491231
  72.9096473 110.8661046  38.8473806  71.4047567 110.8328589  38.6858937
  68.4238638 105.5053807  35.1250984  67.4936226 105.4438263  35.3420946
  68.5196110 104.9829760  34.3287625  68.3424187 102.0308620  37.7129226
  68.6031004 102.9453953  37.6038386  69.1641359 101.5633063  37.8625839
  69.8149112 103.4446377  44.8828050  70.4872166 103.2363739  44.2340699
  68.9878899 103.2468463  44.4433283  75.7174685 100.0708318  46.8993711
  75.0702600 100.7698268  46.8058188  76.4875700 100.5044462  47.2669959
  75.8938819 107.9089083  44.9590531  76.8230879 108.0600243  44.7859498
  75.4729849 107.9973104  44.1039177  74.6927151 111.9339747  42.7289068
  74.5538236 111.5658532  43.6015007  73.9041747 112.4487387  42.5573026
  76.2432366 111.3121350  40.1177906  75.9082198 111.2722120  41.0135556
  75.7436311 110.6466066  39.6448316  70.2176610 106.7188980  45.6430487
  70.0796408 105.9869219  46.2442026  71.1281533 106.6297880  45.3614675
  72.8458910 106.4308939  45.1314167  73.5558529 105.7902132  45.0900785
  72.8028219 106.6821834  46.0540348  71.5587844 103.4174157  46.9509807
  71.0225201 102.9664896  47.6031403  70.9704553 103.5520066  46.2080271
  70.9690103 102.8762809  29.5136270  70.0919570 102.7551610  29.1498517
  71.4447856 102.0848887  29.2615159  62.4892243 107.6639968  39.6077777
  63.1763283 107.3501698  39.0198793  62.3340372 108.5681333  39.3345029
  67.2926966 102.5530165  44.0362801  67.2085154 101.9455835  43.3013211
  66.4709672 103.0439183  44.0372297  77.4650679 101.0383729  39.4032996
  77.9619379 100.2853691  39.0834066  76.6937661 101.0748045  38.8376205
  78.5480460 109.7955416  36.9771419  77.6136739 109.9156878  36.8076124
  78.7257129 108.8927883  36.7131429  74.0485648 103.1801112  39.1304681
  73.6783436 102.6272152  39.8185586  74.5444741 102.5759245  38.5779681
  81.9353012 105.6372735  37.5121454  82.4013464 106.4700727  37.4381756
  82.3860512 105.1717717  38.2166712  71.8774847 113.6398607  46.2259699
  72.5784306 114.2735090  46.3789093  71.4069962 113.9813338  45.4655338
  79.9069674  98.0053322  41.5512355  78.9932754  98.2357549  41.7194562
  80.3362776  98.0891766  42.4026387  79.6776133 106.1943214  44.0512249
  79.0247583 106.4419121  43.3964702  80.0556513 105.3807352  43.7174726
  75.7263706 106.9363025  50.5378286  75.0504343 106.8357154  51.2080661
  76.5491340 106.7802239  51.0014283  67.4742565 113.1734962  43.1590801
  68.0596002 112.4278650  43.2918705  67.2767403 113.4838918  44.0427465
  62.0660220 105.7440562  41.8795244  62.1044319 105.2104153  42.6732363
  61.5600512 105.2175767  41.2606222  69.4450982 100.5905102  45.3757787
  69.5092308 101.4519933  44.9635184  69.3818102  99.9779104  44.6430145
  68.9203254 102.6628235  49.0230821  69.5475293 102.2805312  49.6368345
  68.0631173 102.4442437  49.3886514  65.6968797 104.4704664  34.9549176
  65.9922238 103.5615342  34.9016230  64.7956833 104.4492403  34.6330178
  69.2263044 102.5460661  40.9376724  68.5049630 103.1596628  40.7984198
  70.0156300 103.0818425  40.8593370  72.0289358  99.8815087  47.2117376
  72.5523760 100.1277384  47.9743685  71.8101691 100.7135122  46.7920514
  67.4256639 102.1518762  35.0788501  67.0969345 101.2716141  34.8963607
  67.7796009 102.0966430  35.9664890  70.5398462 102.4391731  35.4463979
  70.8794534 102.9677653  34.7242587  70.9870582 102.7772138  36.2222545
  73.2341903 100.8228782  44.8967047  72.8938723 100.0236595  45.2987727
  72.5280909 101.1230493  44.3243880  73.8858375  97.9078095  43.3494370
  74.7084444  97.4338573  43.2273260  74.1296438  98.6868578  43.8493056
  72.5266609 100.9366353  33.6457271  73.2474972 101.3147606  33.1420988
  71.9031913 101.6555230  33.7492249  76.6697732 101.6411502  34.5815604
  76.8861346 102.5236140  34.2804432  76.1891799 101.2497715  33.8521246
  71.4096953 104.5997215  41.1586348  71.2641534 104.9137518  42.0510630
  70.9322157 105.2182116  40.6057247  73.2693336 101.5899763  41.2067238
  73.2554905 100.6940857  40.8699536  73.9865764 101.5970427  41.8405524
  75.1219467 102.0237103  43.2520365  74.8637245 102.9454174  43.2504696
  74.5904507 101.6267538  43.9420829  65.8842615 107.1402560  44.0974010
  65.3396084 107.9162368  44.2294284  66.7621965 107.4873364  43.9393131
  72.6730232 100.4714143  36.4754808  72.7946143  99.5430790  36.6745696
  72.3832275 100.4852829  35.5633123  75.5421423  98.1569054  39.6121528
  75.5643119  98.2208387  38.6573507  75.9589482  97.3173563  39.8062034
  66.6708637 106.2672456  46.9904166  65.9290373 106.4155091  47.5768797
  66.3501382 106.5280721  46.1270916  67.1165251 114.1537885  39.0214561
  67.9423271 113.8541656  38.6413205  66.7659303 113.3845507  39.4704350
  72.0846784 113.5064353  41.0912235  71.4626793 112.8435058  40.7914462
  72.7551651 113.5325485  40.4085882  65.3173856 112.0724211  39.9803495
  64.4805764 111.6446385  39.7987496  65.2897502 112.2656654  40.9174286
  72.1571312 101.9846141  50.6844741  72.2059467 102.8608264  50.3022510
  72.6993826 101.4423534  50.1116384  71.6460291 112.0568276  34.5670695
  71.7948411 112.7403741  33.9137368  72.4526735 112.0373366  35.0820151
  80.0527795 105.3610659  48.5937913  80.9537658 105.2217123  48.3021911
  80.1275769 105.5265113  49.5336090  74.3870600 102.7377513  47.4391099
  73.5173910 103.0311079  47.1673688  74.6230081 103.3217958  48.1598363
  82.5129417 106.9209287  45.9900686  82.9883539 107.1136933  45.1819537
  81.5894983 106.9768472  45.7444069  69.4012924 108.0833454  35.5731764
  69.1558966 107.1795784  35.7711974  69.5708839 108.0850604  34.6311242
  77.0909634  98.9557130  44.9556520  77.6091578  99.6918157  44.6303008
  76.7364767  99.2621123  45.7903279  68.6708572 103.8161811  33.0717926
  67.9777817 103.8906166  32.4157962  68.4260324 103.0522155  33.5939442
  77.3422228  95.3757413  40.4757416  77.6223982  94.7080602  41.1017843
  78.1272835  95.5686508  39.9632080  81.2131086 103.7975047  44.2228991
  82.1648509 103.8973144  44.2441215  81.0434537 103.0053315  44.7327076
  79.2345466 100.8830630  44.4088392  78.6395398 101.1635643  43.7134881
  78.9495163 101.3724531  45.1805133  83.6919164 107.0181166  43.3371291
  83.6595484 106.0797167  43.5230975  84.3019788 107.0965203  42.6037116
  75.5302495 105.8877219  29.3798495  76.4761600 105.7583427  29.4486913
  75.1516740 105.1491881  29.8567923  83.8413653 103.8092210  43.3829574
  83.3252701 103.0250666  43.1959503  84.7253601 103.4810926  43.5476094
  81.5024380  97.5533225  39.3425387  81.3049201  97.2448314  40.2268719
  82.1124085  98.2794864  39.4723317  75.4141188 109.9394965  50.8399152
  76.3344197 110.1173565  51.0339199  75.3790771 108.9951011  50.6878851
  73.7145412 103.8127196  29.3153380  72.8076868 103.5160308  29.3916094
  73.9921393 103.5157014  28.4487667  64.6323353 105.1333559  39.7652427
  64.3126137 104.2798867  39.4726801  64.0856781 105.3482137  40.5210394
  68.4103260 107.8496000  43.4821933  68.6289270 108.7813108  43.5009967
  68.8229034 107.4903975  44.2676737  75.3307478  98.3564085  35.4697622
  74.5208206  98.0111170  35.8452868  76.0191895  98.0471629  36.0585233
  77.2598026  97.4342132  37.0921918  77.8129065  97.8537586  37.7511941
  77.4968113  96.5077880  37.1344874  73.2831126 103.4229206  52.8724682
  73.1827852 104.3723563  52.8036773  73.0652668 103.0947445  52.0000752
  72.4844197 100.6714131  29.4565360  73.3463361 100.9969029  29.7161177
  72.6694541  99.8845627  28.9438425  64.5011613 108.7536471  41.7345548
  63.8075084 108.3390423  41.2215503  65.2484604 108.7957007  41.1378967
  80.6376833  99.5442657  36.6000583  80.0575502 100.2027461  36.2178635
  80.3712766  98.7220002  36.1888000  79.0880400  98.9447715  38.8021903
  79.5880178  99.0564250  37.9936222  79.7316008  98.6408768  39.4422711
  73.1462396 106.8526345  51.6889744  72.6629477 107.6526705  51.8953633
  73.2323335 106.8634290  50.7357188  66.4148355 108.6854724  39.6111563
  66.3919043 108.7842412  38.6593446  66.7248992 109.5319875  39.9328729
  69.0735733 110.7430879  43.7258178  70.0278987 110.7114822  43.6588109
  68.8748257 110.2821503  44.5408404  69.6635115 109.3131996  46.2928975
  70.4828004 109.8076074  46.3163813  69.9371923 108.3963964  46.2646543
  79.4201711 101.7042748  35.6556931  78.5327566 101.9892398  35.4377126
  79.8355700 101.5436511  34.8084208  82.7716248 101.7289269  39.3711270
  83.5476638 102.2185721  39.6435887  82.0464382 102.1547323  39.8283140
  85.2088806 102.4416888  40.4285211  85.8033297 102.2012624  39.7178519
  85.2815390 101.7224019  41.0558747  79.3942735 107.2197284  35.8707221
  79.3377937 107.6765835  35.0314853  79.9471078 106.4587968  35.6930064
  83.2047541 103.0087016  36.6957340  82.9484475 102.6083651  37.5265548
  82.5800409 103.7230810  36.5707480  80.1277514 108.4102065  33.1659750
  80.0726318 108.2446336  32.2248194  79.5023570 109.1178098  33.3221940
  64.9170029 103.6470129  46.9921172  65.5628893 103.1369083  47.4808397
  64.7087181 104.3838811  47.5664598  77.4423422 110.7150977  52.4913313
  78.3114581 110.8891629  52.1299948  76.9630173 111.5345394  52.3689042
  73.4373640  97.9110174  32.7445069  73.4252310  98.8552014  32.9013339
  74.3297062  97.7280319  32.4504530  77.2525759  94.5052951  36.9991005
  76.4858155  93.9511437  37.1447688  77.6636464  94.5774819  37.8605157
  69.2567520 100.7937746  51.0896187  70.1198982 100.4374551  51.2999511
  68.6832931 100.4551641  51.7771591  24.0653372   7.4550219  28.6203894
  24.7031782   7.3356967  27.9167234  23.9474215   8.4031063  28.6791846
  21.3562861   8.5612499  34.5151624  21.3451502   8.1665297  33.6432128
  21.5183500   7.8278572  35.1085396  18.0770122  11.3449611  33.4630808
  17.7859988  12.2495242  33.3477475  18.7127106  11.3866139  34.1774878
  19.0026329   8.7226459  30.0532168  19.5989901   8.4982482  29.3389131
  19.0601300   7.9811205  30.6557616  23.0360007  11.0311026  30.4580602
  22.7360730  11.9336065  30.3496409  22.6911067  10.7643210  31.3101755
  20.5098017   4.9683212  36.0812937  19.7331351   5.5277132  36.0715801
  21.1488580   5.4539995  36.6027807  28.3018797   1.7510005  29.9155913
  27.6593178   2.0442538  29.2695708  27.7973726   1.6362925  30.7209110
  18.7644389   7.7768666  35.6430904  19.5059073   8.3153710  35.3665727
  18.0581375   8.4034954  35.8002455  24.2399729   9.9197806  34.2403065
  24.6483085   9.4780217  33.4957698  23.5176990   9.3450434  34.4937258
  20.5930799   4.8570413  31.6136622  21.4391994   5.2809826  31.7571271
  20.5329436   4.2004037  32.3075185  24.5628543  10.4798997  27.9955354
  23.9337406  10.6444711  27.2931422  24.1754205  10.8940606  28.7666318
  28.4417775  11.4153435  25.3499718  27.7568813  11.7952336  24.7996751
  28.5261625  12.0248761  26.0831666  23.7430244   2.5174781  33.2717796
  23.4991176   3.2716842  32.7352071  24.0190175   2.8960129  34.1065043
  25.6968707   9.0613394  31.9495061  25.9085602   9.7045153  31.2729442
  25.6498455   8.2275710  31.4816991  17.5005753   4.9308314  36.4446214
  16.8704413   5.6124595  36.6781610  17.3941841   4.8191395  35.4999352
  26.8114535  11.9385349  30.1217419  27.6331979  11.5365536  29.8400100
  26.8076938  11.8353583  31.0733534  20.5771138  11.4869392  32.2778129
  20.6415571  11.9489800  33.1136301  19.8682062  10.8566757  32.4060439
  34.9020528   8.2824097  26.4702390  34.1484236   7.7131496  26.3146395
  35.0368069   8.2486762  27.4173025  21.9187632  13.7761066  36.2757452
  21.4751486  12.9897445  35.9578356  22.5804846  13.9640217  35.6101342
  16.6774753  15.3056868  30.8018130  17.2282179  15.1773931  30.0295124
  15.8386229  15.6051757  30.4513023  24.0168870  14.0563866  34.3038853
  23.9987346  14.8772747  33.8119122  24.9388790  13.9317941  34.5288994
  20.4741925  11.5707996  35.1462361  21.0070261  10.8096284  34.9161669
  19.9456006  11.2781648  35.8886516  26.8187483   8.8943009  27.7748220
  26.1611158   9.5842270  27.8628348  27.6227882   9.2839441  28.1182206
  24.8387677  14.0669880  24.8881122  25.1310652  14.6274937  24.1693488
  25.3486298  14.3598441  25.6434281  19.8021303  14.8450231  25.9774575
  19.7597481  15.0711077  25.0483107  20.7184002  14.6113605  26.1260376
  23.2486936   5.3134298  32.8755204  23.6036324   5.5405771  33.7349670
  23.8959068   5.6452675  32.2532460  29.0054053  10.5029261  28.5915805
  29.4390560  10.4104550  29.4398859  29.7185634  10.4786762  27.9535821
  22.7381948  14.1031355  30.1248906  22.7918970  14.6722291  30.8926622
  21.8696729  14.2733240  29.7602943  29.8669603  10.5452962  31.1248690
  30.0605493  11.4498772  31.3707965  29.7670221  10.0860381  31.9587275
  24.9284711  10.6959704  36.6989571  24.7770218  10.4670256  35.7819655
  24.9189391  11.6530306  36.7120916  21.6970048   8.2691617  31.6835837
  22.6262108   8.4202777  31.5104805  21.2761078   8.3575638  30.8284484
  20.4958379  12.2942282  29.4534375  20.3569465  11.9261066  30.3260313
  19.7072976  12.8089921  29.2818333  22.0463595  11.6723884  26.8423213
  21.7113427  11.6324654  27.7380863  21.5467540  11.0068600  26.3693623
  16.0207839   7.0791514  32.3675794  15.8827636   6.3471753  32.9687333
  16.9312762   6.9900414  32.0859982  18.6490139   6.7911474  31.8559474
  19.3589758   6.1504666  31.8146092  18.6059447   7.0424369  32.7785654
  26.6376918  13.7278827  34.7766053  26.5789464  13.0438047  34.1096636
  27.0396436  14.4697817  34.3246679  15.6567617  20.5440741  27.5699772
  15.8964215  21.1759265  28.2478790  14.8136813  20.1928781  27.8565131
  26.6394325  11.6918411  33.0080033  25.7521104  11.3544333  33.1306431
  27.2092876  10.9601442  33.2448798  20.1695479  16.3519863  29.9741276
  20.0965650  17.1574835  30.4860580  19.7272872  16.5511829  29.1489297
  31.1211666   7.1026628  27.7696594  31.1101542   7.9851344  27.3990527
  30.2529045   6.7498179  27.5751131  22.6294162  16.2506697  32.1299434
  23.3422134  16.8854162  32.0575336  22.1384191  16.3470563  31.3139436
  17.6806076  14.0001141  32.9505005  18.3815535  14.6337624  33.1034399
  17.2101191  14.3415872  32.1900645  25.4807362   6.5545748  30.7757556
  24.8278812   6.8021656  30.1210008  25.8587741   5.7409886  30.4420033
  22.4414535  16.5905441  24.8785726  22.6236930  15.7727097  25.3413478
  23.2647521  16.8073134  24.4410616  21.5294935   7.2965559  37.2623593
  20.8535572   7.1959689  37.9325968  22.3522569   7.1404773  37.7259590
  13.2773794  13.5337496  29.8836108  13.8627231  12.7881184  30.0164012
  13.0798632  13.8441453  30.7672772  20.2717717  18.6032487  31.4981209
  20.8236026  18.7664108  32.2630294  20.6123911  19.1936925  30.8261234
  25.1228592  13.4293744  37.3529863  25.6668496  14.0423703  36.8584818
  24.5415437  13.9873323  37.8696876  23.4086105  16.5514462  28.4844891
  23.2837244  15.7504202  27.9755836  24.0665196  17.0460656  27.9958861
  25.4721013  14.3523482  30.1124441  24.5251349  14.2328834  30.0402768
  25.8203786  13.4645980  30.1950702  22.4767446  14.1476199  26.3128793
  22.3292409  13.2192906  26.4936363  23.3020940  14.1696289  25.8285868
  26.0801568  14.9704757  27.3993666  27.0048116  14.7647619  27.2618117
  25.9116872  14.7221158  28.3083007  20.4183529  16.1690968  33.5129863
  20.7270655  15.9240115  34.3852563  21.2159011  16.3737607  33.0248733
  20.4404141  18.3228878  25.7435240  20.0009131  17.8305257  26.4368096
  21.1912258  17.7801846  25.5027315  17.8878013  13.8666887  27.8157541
  17.2658022  13.2037592  27.5159769  18.5582880  13.8928019  27.1331189
  28.4457386  12.8889798  36.6891184  27.6552930  12.8713937  36.1495684
  28.2090741  13.4278092  37.4440221  28.5655261   9.7382265  34.0023913
  28.6153266   9.5732272  34.9439436  28.4569185   8.8709524  33.6121794
  25.8559024   5.7213193  35.3183220  26.7568886   5.5819658  35.0267217
  25.9306998   5.8867648  36.2581397  20.1901829   3.0980047  34.1636406
  19.3205138   3.3913614  33.8918994  20.4261309   3.6820492  34.8843670
  30.0673458  12.1579206  34.2465934  29.7758266  12.5209187  35.0829395
  29.4545589  11.4446214  34.0679267  31.2669140   9.7232086  26.7668505
  32.1016032  10.1621890  26.9306065  31.4028269   9.2470739  25.9476750
  28.3160646   7.2811821  32.7145992  28.7914768   7.4739467  31.9064844
  27.3926212   7.3371007  32.4689376  27.0162315   4.1577581  30.9474298
  27.9679738   4.2575679  30.9686522  26.8465766   3.3655849  31.4572382
  29.4950393   7.3783701  30.0616598  29.4626713   6.4399701  30.2476281
  30.1051017   7.4567737  29.3282423  29.6444882   4.1694744  30.1074881
  29.1283930   3.3853201  29.9204810  30.5284830   3.8413461  30.2721400
  35.3126943   8.4399707  29.2022634  36.0430331   8.1784996  29.7630338
  34.7033888   7.7028429  29.2424702  33.3942240   6.5807570  29.7997086
  32.6675404   6.4463535  29.1913577  32.9789527   6.8884399  30.6053804
  21.2172416  10.2997500  37.5644459  22.1375426  10.4776099  37.7584505
  21.1822000   9.3553545  37.4124158  19.0862354   3.7831740  39.5969989
  18.9859081   4.7326097  39.5282080  18.8683896   3.4549979  38.7246059
  18.9493624   7.2128879  38.4135050  18.4660706   8.0129239  38.6198939
  19.0354563   7.2236824  37.4602494  14.8766962  11.1033414  30.4503484
  15.8310215  11.0717356  30.3833416  14.6779485  10.6424037  31.2653710
  15.4666344   9.6734530  33.0174282  16.2859233  10.1678608  33.0409119
  15.7403152   8.7566498  32.9891849  33.3191108   6.1085623  25.9273938
  32.7590666   6.1778812  26.7005501  32.7134611   5.9326608  25.2073435
  16.3886317  17.5422350  27.6792125  16.2718701  18.4867783  27.5770815
  15.5678763  17.2395912  28.0677924  23.2454650  11.0753511  39.2158620
  24.1145810  11.2494163  38.8545254  22.7661402  11.8947928  39.0934349
  17.4140831  18.1950612  30.8948053  18.3168077  18.2274222  31.2114548
  17.1878201  17.2651063  30.9094389  19.1694433  16.9481599  27.5558132
  18.2190064  16.9483460  27.4422504  19.4726919  16.2014333  27.0394166
  34.9047126  22.7842137  28.6203894  35.5425536  22.6648884  27.9167234
  34.7867969  23.7322981  28.6791846  31.7136832  22.7369565  28.5565419
  31.3755344  22.6210630  27.6685954  32.5826601  22.3360730  28.5366425
  27.5723648  24.5905042  24.5462310  27.0088513  24.4994978  23.7778598
  27.4576043  23.7704946  25.0264802  32.1956615  23.8904417  34.5151624
  32.1845256  23.4957215  33.6432128  32.3577255  23.1570489  35.1085396
  25.1188080  26.0856233  27.3846530  25.9109372  25.7447058  26.9692830
  25.3584730  26.1951208  28.3048684  33.1523207  28.2576009  19.8576775
  32.5011187  28.8430090  19.4710789  33.9467570  28.7882204  19.9171812
  27.0778834  25.3465146  20.2563909  27.8509710  24.7994133  20.1176785
  27.4304233  26.2109396  20.4678370  28.9163877  26.6741529  33.4630808
  28.6253743  27.5787159  33.3477475  29.5520861  26.7158056  34.1774878
  29.8420083  24.0518377  30.0532168  30.4383656  23.8274400  29.3389131
  29.8995055  23.3103123  30.6557616  34.4588395  20.5093591  25.6957102
  35.2451484  20.0913014  25.3447519  34.7227099  21.4139683  25.8638751
  34.6298472  25.9466441  20.3945759  33.9944305  26.0201068  21.1066664
  34.2995878  26.5360040  19.7164838  39.8596822  20.4468824  26.5990081
  40.5921994  19.8768041  26.8327910  39.1036178  20.0590425  27.0396586
  29.1341401  23.4085918  20.0906734  29.0177659  22.7330822  20.7587818
  29.2443660  22.9218292  19.2738887  31.4772942  22.8696066  23.7953423
  31.1131149  22.3426687  24.5066345  32.3340057  22.4794535  23.6219909
  37.3822242  14.1590398  31.0584689  37.0505567  15.0285809  30.8345904
  36.7867856  13.8426682  31.7378720  33.8753762  26.3602944  30.4580602
  33.5754485  27.2627983  30.3496409  33.5304821  26.0935127  31.3101755
  27.3266243  22.8116741  26.4917306  26.4016740  22.6792955  26.6994998
  27.5750656  23.5910960  26.9887249  37.2750905  18.8785484  28.1378039
  36.3667783  18.8100893  27.8436800  37.2238501  19.3557429  28.9659865
  31.0967649  20.3543623  19.7761439  30.9767275  20.8000674  20.6146919
  30.4020238  20.7028940  19.2174977  24.6875054  22.4550015  27.3261096
  24.8167435  22.7084493  28.2400507  24.0072506  23.0477723  27.0065751
  28.8574541  33.1247265  23.4251570  28.7798571  34.0755090  23.5040050
  28.2536185  32.7793137  24.0826496  31.3491771  20.2975130  36.0812937
  30.5725105  20.8569050  36.0715801  31.9882334  20.7831913  36.6027807
  39.1412552  17.0801923  29.9155913  38.4986932  17.3734456  29.2695708
  38.6367480  16.9654843  30.7209110  36.7952716  20.8265096  20.6041773
  37.7070572  21.0592483  20.4289470  36.2862363  21.4102140  20.0416851
  29.6038144  23.1060583  35.6430904  30.3452828  23.6445627  35.3665727
  28.8975129  23.7326872  35.8002455  35.0793483  25.2489724  34.2403065
  35.4876839  24.8072134  33.4957698  34.3570745  24.6742351  34.4937258
  31.4324553  20.1862331  31.6136622  32.2785748  20.6101744  31.7571271
  31.3723191  19.5295955  32.3075185  35.4022298  25.8090914  27.9955354
  34.7731160  25.9736629  27.2931422  35.0147960  26.2232524  28.7666318
  39.2811530  26.7445352  25.3499718  38.5962568  27.1244254  24.7996751
  39.3655379  27.3540679  26.0831666  34.5823999  17.8466699  33.2717796
  34.3384930  18.6008759  32.7352071  34.8583929  18.2252047  34.1065043
  36.5362461  24.3905311  31.9495061  36.7479357  25.0337071  31.2729442
  36.4892210  23.5567628  31.4816991  34.1388690  17.0023132  28.8531633
  33.2773169  17.3004385  29.1448371  34.1651125  17.2193531  27.9212666
  30.9550260  25.5465322  25.2605439  31.4188605  25.8253025  24.4710062
  30.6907058  24.6448767  25.0778530  27.8474341  25.0936804  28.1985202
  28.4175698  25.5224072  27.5602687  28.4382453  24.8119389  28.8969388
  29.8919146  21.6688475  22.0695004  30.5943189  22.1209519  22.5368931
  29.5599774  21.0272294  22.6974897  28.3399507  20.2600231  36.4446214
  27.7098168  20.9416512  36.6781610  28.2335595  20.1483313  35.4999352
  23.6344480  19.9272028  27.3712138  22.8443534  20.1829556  26.8952248
  24.1255727  20.7420365  27.4764178  37.6508289  27.2677267  30.1217419
  38.4725733  26.8657454  29.8400100  37.6470692  27.1645501  31.0733534
  25.5859225  20.2916607  24.3295615  24.7890388  20.4035301  24.8479110
  25.3584817  20.6303259  23.4636505  31.4164893  26.8161310  32.2778129
  31.4809325  27.2781717  33.1136301  30.7075817  26.1858675  32.4060439
  21.9182183  20.1802518  29.8027129  22.1690221  21.0649528  30.0684705
  22.4541731  20.0007119  29.0302220  45.7414282  23.6116015  26.4702390
  44.9877991  23.0423413  26.3146395  45.8761824  23.5778680  27.4173025
  31.1312910  28.4829417  22.1457109  30.9958585  29.3280953  22.5741957
  31.6722723  28.6848695  21.3823043  27.6180250  14.5620997  38.8071465
  27.2247196  14.0087196  39.4819109  28.4346390  14.8731576  39.1977982
  26.3937192  29.1170612  24.8007788  26.5703821  30.0388576  24.6128772
  27.1894026  28.8029031  25.2302168  30.5348211  15.9778876  36.3991721
  31.2757924  16.5786030  36.3196184  30.7666134  15.2356514  35.8409764
  25.6789549  21.1635244  34.6769951  25.5643064  20.2620501  34.9777050
  24.8234067  21.4098940  34.3254768  32.7581387  29.1052984  36.2757452
  32.3145241  28.3189363  35.9578356  33.4198600  29.2932134  35.6101342
  27.5168508  30.6348786  30.8018130  28.0675933  30.5065849  30.0295124
  26.6779984  30.9343675  30.4513023  34.8562625  29.3855784  34.3038853
  34.8381100  30.2064665  33.8119122  35.7782545  29.2609859  34.5288994
  31.3135679  26.8999913  35.1462361  31.8464016  26.1388202  34.9161669
  30.7849760  26.6073565  35.8886516  34.4805374  12.0059979  30.6756003
  34.1369643  12.8961621  30.5995114  34.8484337  11.8161637  29.8125588
  22.5491225  24.3293510  23.4944605  23.3866447  24.7390518  23.2778313
  22.7269492  23.3892952  23.4644799  34.4455657  21.9968590  19.1828438
  33.9302280  22.7673195  19.4216825  34.1732965  21.3233727  19.8061500
  32.0302768  16.8418291  24.2413676  31.1744364  16.4525142  24.0619315
  32.4429719  16.9210252  23.3813462  33.5601914  14.3764635  28.6405236
  33.0566710  14.3394770  27.8273041  33.8532521  15.2857377  28.7001893
  29.8044800  14.4603364  27.6471418  30.6697797  14.2646173  27.2877307
  29.8722309  14.2313716  28.5740775  39.4189931  24.7500945  21.1181612
  38.6419374  24.4112105  20.6736774  40.0981412  24.7553568  20.4436577
  34.2341960  19.8695683  21.0088219  33.9292095  20.1841832  21.8598362
  35.1872402  19.9477102  21.0515552  32.6788392  26.0285906  22.6581173
  32.1509753  25.2938665  22.3454411  32.1775894  26.8060582  22.4121142
  37.6581238  24.2234926  27.7748220  37.0004912  24.9134188  27.8628348
  38.4621637  24.6131358  28.1182206  27.4107119  16.6905572  25.0187785
  27.9850871  16.4680754  24.2860978  27.9978102  16.7594267  25.7716386
  36.4686697  22.5779299  25.8252161  36.9818578  23.2109291  26.3273871
  37.1187920  21.9780495  25.4595521  29.7129787  13.5646821  23.7462854
  29.0594199  13.2495838  23.1219469  29.6710261  12.9422562  24.4722677
  30.8240992  23.8466116  15.6616146  29.9168054  23.6155370  15.8607295
  31.3212024  23.0503735  15.8490128  33.7309071  32.5563623  18.5812832
  33.0570770  32.8595320  19.1897790  34.1174893  33.3592704  18.2318289
  32.9467527  20.0528755  28.0710502  32.0290089  20.2743702  27.9132190
  33.3627671  20.1275065  27.2122209  33.7302575  21.4520170  23.2013182
  34.4774394  21.9641567  22.8920304  33.9994165  21.1304223  24.0617576
  32.0029225  23.9478711  20.1840136  31.0940445  23.6637744  20.2812606
  32.0324309  24.3677790  19.3243443  37.2348493  27.5585301  23.9531304
  36.7810820  26.7176210  24.0096494  36.6042459  28.1946699  24.2906084
  36.1781412  18.4877287  25.1831971  35.4404169  17.9754673  25.5142214
  36.4308186  18.0477668  24.3715248  35.6781432  29.3961797  24.8881122
  35.9704406  29.9566854  24.1693488  36.1880053  29.6890358  25.6434281
  36.2793040  11.2653539  25.7773741  36.5851916  10.4050902  25.4899656
  37.0045644  11.8571159  25.5772735  22.5717396  21.6684225  24.1655339
  22.3741796  21.0753586  23.4406405  22.0164060  21.3636435  24.8831277
  30.5514119  21.5607332  26.2849932  30.6062729  20.6081168  26.2092408
  29.7405321  21.7166771  26.7691230  31.7005313  25.4887455  17.5228215
  31.2624743  24.7723314  17.0633852  32.4415754  25.7163569  16.9613306
  28.4906479  20.1784391  24.0440311  27.6774345  20.4778562  24.4505503
  28.9865473  19.7840080  24.7614793  30.6415057  30.1742148  25.9774575
  30.5991236  30.4002995  25.0483107  31.5577756  29.9405523  26.1260376
  34.0880691  20.6426216  32.8755204  34.4430079  20.8697689  33.7349670
  34.7352822  20.9744593  32.2532460  39.8178428  23.7644652  23.5804533
  39.6796326  23.9546248  22.6525723  39.4614647  24.5264035  24.0372585
  27.9820554  17.7502747  29.6601546  28.6219933  17.6091506  28.9624509
  27.1498085  17.4637260  29.2840148  39.8447808  25.8321179  28.5915805
  40.2784314  25.7396468  29.4398859  40.5579388  25.8078679  27.9535821
  28.7580858  27.0505177  25.7736538  29.5521456  26.5555497  25.5719113
  28.0472550  26.5223040  25.4104244  33.5775702  29.4323273  30.1248906
  33.6312725  30.0014209  30.8926622  32.7090484  29.6025158  29.7602943
  25.0663621  21.1948259  21.8496291  24.1361210  21.1332715  22.0666253
  25.1621093  20.6724212  21.0532932  24.9849170  17.7203072  24.4374532
  25.2455988  18.6348405  24.3283693  25.8066343  17.2527514  24.5871145
  26.4574096  19.1340829  31.6073357  27.1297149  18.9258191  30.9586006
  25.6303882  18.9362915  31.1678589  40.7063357  25.8744879  31.1248690
  40.8999247  26.7790690  31.3707965  40.6063975  25.4152298  31.9587275
  32.3599668  15.7602770  33.6239018  31.7127583  16.4592720  33.5303494
  33.1300683  16.1938914  33.9915266  35.7678466  26.0251622  36.6989571
  35.6163972  25.7962174  35.7819655  35.7583145  26.9822224  36.7120916
  32.5363802  23.5983535  31.6835837  33.4655862  23.7494694  31.5104805
  32.1154832  23.6867556  30.8284484  31.3352134  27.6234199  29.4534375
  31.1963220  27.2552984  30.3260313  30.5466730  28.1381839  29.2818333
  31.9300286  32.7243296  20.7959912  32.1052042  32.2531339  21.6105534
  31.2433074  33.3509062  21.0241172  32.8857349  27.0015802  26.8423213
  32.5507182  26.9616572  27.7380863  32.3861295  26.3360518  26.3693623
  26.8601593  22.4083432  32.3675794  26.7221391  21.6763671  32.9687333
  27.7706517  22.3192332  32.0859982  35.8216541  24.3471836  17.1160273
  35.2045711  23.6218664  17.0193325  35.3533029  25.1081197  16.7727347
  29.4883894  22.1203391  31.8559474  30.1983512  21.4796584  31.8146092
  29.4453202  22.3716286  32.7785654  37.4770672  29.0570745  34.7766053
  37.4183219  28.3729965  34.1096636  37.8790191  29.7989735  34.3246679
  28.2012828  19.1068609  33.6755113  27.6650185  18.6559348  34.3276709
  27.6129536  19.2414518  32.9325577  26.4961371  35.8732659  27.5699772
  26.7357969  36.5051183  28.2478790  25.6530568  35.5220699  27.8565131
  37.4788080  27.0210329  33.0080033  36.5914858  26.6836250  33.1306431
  38.0486631  26.2893360  33.2448798  19.1317227  23.3534420  26.3323084
  19.8188267  23.0396150  25.7444099  18.9765355  24.2575785  26.0590335
  23.9351949  18.2424617  30.7608108  23.8510138  17.6350286  30.0258518
  23.1134655  18.7333635  30.7617604  31.0089233  31.6811781  29.9741276
  30.9359405  32.4866752  30.4860580  30.5666626  31.8803747  29.1489297
  30.7979013  30.9183551  23.4844097  30.0146535  31.4605231  23.5782322
  31.4971758  31.4357531  23.8838338  34.1075663  16.7278180  26.1278303
  34.6044362  15.9748143  25.8079373  33.3362644  16.7642497  25.5621512
  41.9605420  22.4318546  27.7696594  41.9495296  23.3143261  27.3990527
  41.0922800  22.0790097  27.5751131  33.4687917  31.5798615  32.1299434
  34.1815889  32.2146080  32.0575336  32.9777945  31.6762481  31.3139436
  35.1905443  25.4849868  23.7016726  34.2561722  25.6051330  23.5321430
  35.3682112  24.5822334  23.4376736  30.6910632  18.8695563  25.8549987
  30.3208419  18.3166604  26.5430893  31.1869724  18.2653697  25.3024987
  38.5777995  21.3267187  24.2366760  39.0438447  22.1595179  24.1627063
  39.0285495  20.8612169  24.9412019  28.5199830  29.3293058  32.9505005
  29.2209290  29.9629541  33.1034399  28.0494945  29.6707790  32.1900645
  36.6454226  27.6711008  21.2352912  36.9214070  27.5567603  22.1446786
  35.7758725  27.2728493  21.1965085  36.5494658  13.6947774  28.2757662
  35.6357737  13.9252001  28.4439868  36.9787759  13.7786218  29.1271694
  36.3201116  21.8837666  30.7757556  35.6672566  22.1313573  30.1210008
  36.6981496  21.0701804  30.4420033  33.2808290  31.9197359  24.8785726
  33.4630684  31.1019015  25.3413478  34.1041276  32.1365051  24.4410616
  33.6150455  30.8465544  22.1400774  34.1438222  30.3357999  21.5270936
  33.8778675  30.5308074  23.0046307  32.3688689  22.6257477  37.2623593
  31.6929326  22.5251606  37.9325968  33.1916323  22.4696691  37.7259590
  24.1167548  28.8629413  29.8836108  24.7020985  28.1173101  30.0164012
  23.9192387  29.1733370  30.7672772  26.9706203  31.8980661  24.8998550
  26.3016579  32.3826789  24.4162590  26.8319073  32.1449881  25.8141929
  18.7085203  21.4335014  28.6040551  18.7469302  20.8998604  29.3977669
  18.2025496  20.9070219  27.9851528  31.1111472  33.9324404  31.4981209
  31.6629780  34.0956026  32.2630294  31.4517665  34.5228842  30.8261234
  26.0875965  16.2799554  32.1003093  26.1517292  17.1414385  31.6880491
  26.0243085  15.6673556  31.3675452  25.5628238  18.3522687  35.7476128
  26.1900277  17.9699764  36.3613652  24.7056157  18.1336889  36.1131820
  35.9622346  28.7585662  37.3529863  36.5062250  29.3715620  36.8584818
  35.3809191  29.3165240  37.8696876  22.3393780  20.1599116  21.6794482
  22.6347222  19.2509794  21.6261536  21.4381816  20.1386855  21.3575485
  34.2479859  31.8806380  28.4844891  34.1230999  31.0796120  27.9755836
  34.9058950  32.3752573  27.9958861  25.8688027  18.2355112  27.6622031
  25.1474613  18.8491080  27.5229504  26.6581283  18.7712877  27.5838677
  36.3114768  29.6815400  30.1124441  35.3645103  29.5620751  30.0402768
  36.6597541  28.7937898  30.1950702  28.6714341  15.5709539  33.9362683
  29.1948743  15.8171835  34.6988992  28.4526674  16.4029574  33.5165820
  33.3161201  29.4768116  26.3128793  33.1686163  28.5484824  26.4936363
  34.1414694  29.4988207  25.8285868  27.1823445  18.1286183  22.1709285
  27.5219518  18.6572105  21.4487894  27.6295566  18.4666589  22.9467852
  36.9195323  30.2996675  27.3993666  37.8441870  30.0939536  27.2618117
  36.7510626  30.0513076  28.3083007  29.8766886  16.5123234  31.6212353
  29.5363706  15.7131047  32.0233033  29.1705892  16.8124945  31.0489187
  30.5283358  13.5972546  30.0739676  31.3509427  13.1233025  29.9518567
  30.7721421  14.3763030  30.5738363  29.1691592  16.6260805  20.3702578
  29.8899955  17.0042058  19.8666295  28.5456897  17.3449682  20.4737556
  33.3122715  17.3305954  21.3060910  33.5286330  18.2130592  21.0049739
  32.8316782  16.9392167  20.5766552  28.0521937  20.2891667  27.8831655
  27.9066517  20.6031970  28.7755936  27.5747140  20.9076567  27.3302554
  29.9118320  17.2794215  27.9312545  29.8979888  16.3835308  27.5944842
  30.6290748  17.2864879  28.5650831  31.7644450  17.7131555  29.9765672
  31.5062228  18.6348626  29.9750002  31.2329491  17.3161990  30.6666136
  36.7090639  30.8182342  22.7555757  36.8827517  30.2528765  22.0029610
  37.2019530  31.6183237  22.5735247  22.5267599  22.8297011  30.8219316
  21.9821067  23.6056819  30.9539590  23.4046949  23.1767816  30.6638438
  29.3155215  16.1608595  23.2000115  29.4371127  15.2325242  23.3991002
  29.0257258  16.1747281  22.2878430  32.1846406  13.8463506  26.3366835
  32.2068103  13.9102839  25.3818814  32.6014465  13.0068014  26.5307341
  42.5630030  23.5818765  24.3746057  43.0061176  22.8326091  23.9765180
  41.6856540  23.5728902  23.9919789  37.6965811  30.1349107  19.8552656
  38.3916716  30.7555799  20.0739970  38.0388962  29.2844458  20.1305034
  23.3133621  21.9566908  33.7149473  22.5715357  22.1049543  34.3014103
  22.9926365  22.2175173  32.8516222  39.5957235  27.5848812  21.3839986
  40.1208559  27.9236085  20.6589306  39.5079587  26.6495828  21.2003121
  31.2577283  31.4982886  33.5129863  31.5664410  31.2532033  34.3852563
  32.0552765  31.7029524  33.0248733  31.2797895  33.6520796  25.7435240
  30.8402886  33.1597174  26.4368096  32.0306012  33.1093763  25.5027315
  23.7590234  29.8432336  25.7459868  24.5848254  29.5436108  25.3658511
  23.4084286  29.0739959  26.1949656  28.7271768  29.1958805  27.8157541
  28.1051777  28.5329510  27.5159769  29.3976634  29.2219937  27.1331189
  21.9598839  27.7618663  26.7048801  21.1230748  27.3340837  26.5232803
  21.9322485  27.9551106  27.6419592  28.7996295  17.6740593  37.4090047
  28.8484450  18.5502716  37.0267817  29.3418809  17.1317986  36.8361690
  39.2851141  28.2181716  36.6891184  38.4946684  28.2005855  36.1495684
  39.0484495  28.7570010  37.4440221  39.4049016  25.0674182  34.0023913
  39.4547021  24.9024190  34.9439436  39.2962939  24.2001441  33.6121794
  28.2885274  27.7462728  21.2916002  28.4373395  28.4298192  20.6382675
  29.0951718  27.7267818  21.8065458  36.6952778  21.0505110  35.3183220
  37.5962641  20.9111575  35.0267217  36.7700753  21.2159565  36.2581397
  31.0295583  18.4271965  34.1636406  30.1598893  18.7205531  33.8918994
  31.2655064  19.0112410  34.8843670  40.9067213  27.4871124  34.2465934
  40.6152021  27.8501104  35.0829395  40.2939344  26.7738132  34.0679267
  42.1062895  25.0524004  26.7668505  42.9409786  25.4913808  26.9306065
  42.2422024  24.5762657  25.9476750  39.1554401  22.6103739  32.7145992
  39.6308522  22.8031385  31.9064844  38.2319966  22.6662924  32.4689376
  26.0437907  23.7727906  22.2977071  25.7983949  22.8690236  22.4957281
  26.2133822  23.7745056  21.3556549  33.7334617  14.6451582  31.6801826
  34.2516561  15.3812609  31.3548315  33.3789750  14.9515575  32.5148585
  33.9847211  11.0651865  27.2002723  34.2648965  10.3975054  27.8263149
  34.7697818  11.2580960  26.6877387  31.7880680  30.2410858  18.7627749
  31.2154647  30.8601046  18.3098221  32.3613474  30.7910220  19.2967671
  37.8556070  19.4869499  30.9474298  38.8073493  19.5867596  30.9686522
  37.6859520  18.6947767  31.4572382  35.8770449  16.5725082  31.1333699
  35.2820381  16.8530095  30.4380188  35.5920146  17.0618983  31.9050440
  35.0077940  30.5248009  19.8936331  35.9408613  30.4593570  20.0969207
  34.9201153  31.3604275  19.4350864  37.6365956  29.8413879  16.8540279
  37.5579588  29.5073743  17.7476037  38.4575623  30.3335647  16.8531751
  40.3344148  22.7075618  30.0616598  40.3020468  21.7691619  30.2476281
  40.9444771  22.7859655  29.3282423  32.1727478  21.5771671  16.1043802
  33.1186583  21.4477879  16.1732220  31.7941723  20.8386333  16.5813230
  40.4838636  19.4986662  30.1074881  39.9677685  18.7145118  29.9204810
  41.3678585  19.1705378  30.2721400  38.1449363  13.2427677  26.0670694
  37.9474184  12.9342765  26.9514025  38.7549069  13.9689316  26.1968623
  46.1520697  23.7691625  29.2022634  46.8824086  23.5076913  29.7630338
  45.5427643  23.0320347  29.2424702  44.2335995  21.9099488  29.7997086
  43.5069158  21.7755453  29.1913577  43.8183281  22.2176316  30.6053804
  32.0566171  25.6289417  37.5644459  32.9769180  25.8068016  37.7584505
  32.0215754  24.6845463  37.4124158  21.2748336  20.8228011  26.4897733
  20.9551120  19.9693319  26.1972107  20.7281764  21.0376589  27.2455701
  25.0528244  23.5390452  30.2067240  25.2714253  24.4707560  30.2255274
  25.4654017  23.1798426  30.9922044  31.9732461  14.0458537  22.1942928
  31.1633190  13.7005622  22.5698174  32.6616878  13.7366081  22.7830540
  33.9023010  13.1236584  23.8167225  34.4554048  13.5432038  24.4757248
  34.1393096  12.1972332  23.8590181  29.9256109  19.1123658  39.5969989
  29.8252836  20.0618015  39.5282080  29.7077651  18.7841897  38.7246059
  21.1436596  24.4430923  28.4590855  20.4500067  24.0284875  27.9460809
  21.8909587  24.4851459  27.8624274  37.2801817  15.2337109  23.3245889
  36.7000486  15.8921913  22.9423942  37.0137749  14.4114454  22.9133307
  35.7305383  14.6342167  25.5267209  36.2305161  14.7458702  24.7181528
  36.3740991  14.3303220  26.1668018  29.7887379  22.5420797  38.4135050
  29.3054461  23.3421157  38.6198939  29.8748318  22.5528742  37.4602494
  23.0573338  24.3749176  26.3356870  23.0344027  24.4736864  25.3838753
  23.3673975  25.2214327  26.6574036  25.7160716  26.4325331  30.4503484
  26.6703970  26.4009274  30.3833416  25.5173240  25.9715955  31.2653710
  26.3060099  25.0026447  33.0174282  27.1252987  25.4970526  33.0409119
  26.5796906  24.0858416  32.9891849  36.0626695  17.3937200  22.3802237
  35.1752550  17.6786850  22.1622432  36.4780684  17.2330963  21.5329514
  39.4141231  17.4183721  26.0956577  40.1901621  17.9080173  26.3681193
  38.6889365  17.8441775  26.5528446  41.8513789  18.1311340  27.1530517
  42.4458280  17.8907076  26.4423826  41.9240373  17.4118470  27.7804054
  24.0710945  31.9744951  27.4673682  23.9365413  31.2145352  26.9011680
  23.6543007  32.6985851  27.0002471  35.2069908  27.1581874  16.4750257
  35.9105758  27.3631877  17.0907913  34.4832557  27.7258636  16.7399341
  36.0367718  22.9091736  22.5952528  35.9802920  23.3660287  21.7560160
  36.5896061  22.1482420  22.4175370  39.8472524  18.6981468  23.4202647
  39.5909459  18.2978103  24.2510855  39.2225392  19.4125261  23.2952786
  44.1584862  21.4377541  25.9273938  43.5984420  21.5070730  26.7005501
  43.5528366  21.2618525  25.2073435  27.2280071  32.8714268  27.6792125
  27.1112455  33.8159700  27.5770815  26.4072517  32.5687829  28.0677924
  37.1156606  27.5964404  18.5248717  37.9502210  27.1645602  18.3426192
  36.9540948  27.4246417  19.4525612  36.7702498  24.0996517  19.8905057
  36.7151302  23.9340788  18.9493501  36.1448553  24.8072550  20.0467246
  21.5595013  19.3364581  33.7166479  22.2053876  18.8263535  34.2053704
  21.3512164  20.0733263  34.2909904  34.0848405  26.4045429  39.2158620
  34.9539565  26.5786081  38.8545254  33.6055156  27.2239846  39.0934349
  28.2534585  33.5242530  30.8948053  29.1561832  33.5566140  31.2114548
  28.0271955  32.5942981  30.9094389  30.0088187  32.2773516  27.5558132
  29.0583818  32.2775378  27.4422504  30.3120673  31.5306251  27.0394166
  33.8950743  10.1947403  23.7236312  33.1283138   9.6405889  23.8692994
  34.3061448  10.2669271  24.5850464  25.8992504  16.4832198  37.8141493
  26.7623965  16.1269003  38.0244818  25.3257914  16.1446093  38.5016897
  45.7440881  38.1134055  28.6203894  46.3819291  37.9940802  27.9167234
  45.6261724  39.0614899  28.6791846  42.5530587  38.0661483  28.5565419
  42.2149098  37.9502547  27.6685954  43.4220355  37.6652648  28.5366425
  38.4117403  39.9196959  24.5462310  37.8482268  39.8286896  23.7778598
  38.2969798  39.0996864  25.0264802  35.9581835  41.4148151  27.3846530
  36.7503127  41.0738975  26.9692830  36.1978485  41.5243126  28.3048684
  43.9916961  43.5867927  19.8576775  43.3404941  44.1722007  19.4710789
  44.7861324  44.1174122  19.9171812  37.9172589  40.6757064  20.2563909
  38.6903465  40.1286051  20.1176785  38.2697987  41.5401313  20.4678370
  39.7557631  42.0033446  33.4630808  39.4647497  42.9079077  33.3477475
  40.3914615  42.0449974  34.1774878  40.6813838  39.3810295  30.0532168
  41.2777410  39.1566317  29.3389131  40.7388809  38.6395040  30.6557616
  40.2538866  36.8349730  17.8882359  40.5064387  36.3131251  17.1265822
  39.3163425  36.6715876  17.9909043  45.2982149  35.8385509  25.6957102
  46.0845238  35.4204932  25.3447519  45.5620853  36.7431601  25.8638751
  45.4692227  41.2758359  20.3945759  44.8338059  41.3492985  21.1066664
  45.1389633  41.8651958  19.7164838  50.6990576  35.7760742  26.5990081
  51.4315748  35.2059959  26.8327910  49.9429932  35.3882342  27.0396586
  39.9735155  38.7377836  20.0906734  39.8571413  38.0622740  20.7587818
  40.0837415  38.2510210  19.2738887  42.3166696  38.1987983  23.7953423
  41.9524903  37.6718604  24.5066345  43.1733812  37.8086452  23.6219909
  48.2215997  29.4882316  31.0584689  47.8899321  30.3577727  30.8345904
  47.6261610  29.1718600  31.7378720  41.9572183  33.2277883  18.7914772
  42.1246585  34.0958119  19.1585243  41.7669352  33.3905165  17.8676061
  44.7147516  41.6894862  30.4580602  44.4148239  42.5919901  30.3496409
  44.3698576  41.4227045  31.3101755  38.1659998  38.1408659  26.4917306
  37.2410494  38.0084873  26.6994998  38.4144411  38.9202878  26.9887249
  48.1144660  34.2077402  28.1378039  47.2061537  34.1392810  27.8436800
  48.0632256  34.6849347  28.9659865  41.9361404  35.6835540  19.7761439
  41.8161029  36.1292591  20.6146919  41.2413992  36.0320858  19.2174977
  35.5268809  37.7841932  27.3261096  35.6561190  38.0376411  28.2400507
  34.8466260  38.3769640  27.0065751  39.6968296  48.4539182  23.4251570
  39.6192326  49.4047007  23.5040050  39.0929940  48.1085055  24.0826496
  42.1885526  35.6267048  36.0812937  41.4118860  36.1860968  36.0715801
  42.8276089  36.1123831  36.6027807  49.9806306  32.4093840  29.9155913
  49.3380687  32.7026374  29.2695708  49.4761235  32.2946761  30.7209110
  47.6346470  36.1557014  20.6041773  48.5464326  36.3884400  20.4289470
  47.1256117  36.7394058  20.0416851  40.4431898  38.4352501  35.6430904
  41.1846582  38.9737545  35.3665727  39.7368884  39.0618790  35.8002455
  46.2416052  41.1382832  27.9955354  45.6124915  41.3028546  27.2931422
  45.8541714  41.5524442  28.7666318  50.1205284  42.0737270  25.3499718
  49.4356322  42.4536171  24.7996751  50.2049134  42.6832597  26.0831666
  41.7944014  40.8757240  25.2605439  42.2582360  41.1544943  24.4710062
  41.5300812  39.9740685  25.0778530  38.6868095  40.4228722  28.1985202
  39.2569452  40.8515990  27.5602687  39.2776207  40.1411306  28.8969388
  40.7312900  36.9980393  22.0695004  41.4336944  37.4501436  22.5368931
  40.3993529  36.3564211  22.6974897  39.1793262  35.5892149  36.4446214
  38.5491922  36.2708430  36.6781610  39.0729350  35.4775231  35.4999352
  34.4738234  35.2563945  27.3712138  33.6837288  35.5121474  26.8952248
  34.9649482  36.0712283  27.4764178  36.4252980  35.6208524  24.3295615
  35.6284143  35.7327219  24.8479110  36.1978572  35.9595177  23.4636505
  42.2558647  42.1453228  32.2778129  42.3203080  42.6073635  33.1136301
  41.5469571  41.5150593  32.4060439  32.7575937  35.5094436  29.8027129
  33.0083976  36.3941446  30.0684705  33.2935486  35.3299037  29.0302220
  56.5808037  38.9407933  26.4702390  55.8271745  38.3715331  26.3146395
  56.7155578  38.9070597  27.4173025  41.9706665  43.8121335  22.1457109
  41.8352340  44.6572871  22.5741957  42.5116477  44.0140613  21.3823043
  38.4574005  29.8912915  38.8071465  38.0640950  29.3379114  39.4819109
  39.2740145  30.2023493  39.1977982  35.4236062  41.3296773  22.7185035
  35.9360583  42.1240023  22.8690599  36.0758775  40.6323064  22.6518636
  37.2330947  44.4462529  24.8007788  37.4097575  45.3680494  24.6128772
  38.0287781  44.1320949  25.2302168  41.3741966  31.3070794  36.3991721
  42.1151679  31.9077947  36.3196184  41.6059888  30.5648432  35.8409764
  36.5183304  36.4927161  34.6769951  36.4036819  35.5912419  34.9777050
  35.6627821  36.7390858  34.3254768  43.5975141  44.4344902  36.2757452
  43.1538995  43.6481280  35.9578356  44.2592355  44.6224052  35.6101342
  38.3562262  45.9640703  30.8018130  38.9069688  45.8357767  30.0295124
  37.5173738  46.2635592  30.4513023  45.6956379  44.7147702  34.3038853
  45.6774855  45.5356583  33.8119122  46.6176299  44.5901777  34.5288994
  42.1529433  42.2291831  35.1462361  42.6857770  41.4680119  34.9161669
  41.6243515  41.9365483  35.8886516  45.3199128  27.3351897  30.6756003
  44.9763398  28.2253539  30.5995114  45.6878091  27.1453555  29.8125588
  33.3884979  39.6585427  23.4944605  34.2260201  40.0682436  23.2778313
  33.5663247  38.7184870  23.4644799  45.2849411  37.3260508  19.1828438
  44.7696035  38.0965113  19.4216825  45.0126720  36.6525644  19.8061500
  42.8696522  32.1710209  24.2413676  42.0138119  31.7817059  24.0619315
  43.2823474  32.2502170  23.3813462  44.3995669  29.7056552  28.6405236
  43.8960464  29.6686687  27.8273041  44.6926276  30.6149295  28.7001893
  40.6438555  29.7895282  27.6471418  41.5091552  29.5938091  27.2877307
  40.7116064  29.5605634  28.5740775  50.2583685  40.0792863  21.1181612
  49.4813128  39.7404022  20.6736774  50.9375166  40.0845486  20.4436577
  45.0735714  35.1987600  21.0088219  44.7685850  35.5133749  21.8598362
  46.0266156  35.2769020  21.0515552  43.5182146  41.3577824  22.6581173
  42.9903508  40.6230583  22.3454411  43.0169649  42.1352500  22.4121142
  48.4974992  39.5526844  27.7748220  47.8398667  40.2426105  27.8628348
  49.3015391  39.9423276  28.1182206  38.2500874  32.0197490  25.0187785
  38.8244626  31.7972671  24.2860978  38.8371856  32.0886184  25.7716386
  47.3080451  37.9071217  25.8252161  47.8212333  38.5401209  26.3273871
  47.9581675  37.3072412  25.4595521  38.5770461  34.0501951  19.0383670
  37.7407773  34.3876637  19.3592945  38.4375231  33.9150931  18.1010807
  40.5523542  28.8938739  23.7462854  39.8987954  28.5787756  23.1219469
  40.5104016  28.2714479  24.4722677  41.6634746  39.1758034  15.6616146
  40.7561808  38.9447287  15.8607295  42.1605778  38.3795653  15.8490128
  44.5702825  47.8855541  18.5812832  43.8964524  48.1887238  19.1897790
  44.9568647  48.6884621  18.2318289  43.7861282  35.3820672  28.0710502
  42.8683843  35.6035619  27.9132190  44.2021426  35.4566983  27.2122209
  44.5696330  36.7812088  23.2013182  45.3168149  37.2933485  22.8920304
  44.8387919  36.4596141  24.0617576  42.8422980  39.2770629  20.1840136
  41.9334199  38.9929661  20.2812606  42.8718064  39.6969707  19.3243443
  48.0742247  42.8877218  23.9531304  47.6204574  42.0468128  24.0096494
  47.4436214  43.5238617  24.2906084  47.0175167  33.8169204  25.1831971
  46.2797924  33.3046590  25.5142214  47.2701940  33.3769586  24.3715248
  46.5175186  44.7253715  24.8881122  46.8098161  45.2858772  24.1693488
  47.0273807  45.0182276  25.6434281  47.1186794  26.5945456  25.7773741
  47.4245671  25.7342820  25.4899656  47.8439399  27.1863076  25.5772735
  33.4111150  36.9976143  24.1655339  33.2135550  36.4045504  23.4406405
  32.8557814  36.6928353  24.8831277  41.3907874  36.8899249  26.2849932
  41.4456484  35.9373086  26.2092408  40.5799076  37.0458688  26.7691230
  42.5399068  40.8179372  17.5228215  42.1018498  40.1015231  17.0633852
  43.2809508  41.0455487  16.9613306  39.3300234  35.5076309  24.0440311
  38.5168099  35.8070480  24.4505503  39.8259228  35.1131998  24.7614793
  41.4808812  45.5034066  25.9774575  41.4384990  45.7294912  25.0483107
  42.3971511  45.2697441  26.1260376  50.6572182  39.0936569  23.5804533
  50.5190081  39.2838165  22.6525723  50.3008401  39.8555952  24.0372585
  38.8214309  33.0794665  29.6601546  39.4613688  32.9383424  28.9624509
  37.9891839  32.7929178  29.2840148  39.5974612  42.3797095  25.7736538
  40.3915211  41.8847415  25.5719113  38.8866305  41.8514958  25.4104244
  44.4169457  44.7615191  30.1248906  44.4706479  45.3306127  30.8926622
  43.5484238  44.9317076  29.7602943  35.9057376  36.5240177  21.8496291
  34.9754964  36.4624632  22.0666253  36.0014848  36.0016129  21.0532932
  35.8242925  33.0494990  24.4374532  36.0849742  33.9640323  24.3283693
  36.6460097  32.5819432  24.5871145  37.2967850  34.4632747  31.6073357
  37.9690904  34.2550109  30.9586006  36.4697637  34.2654833  31.1678589
  43.1993422  31.0894688  33.6239018  42.5521337  31.7884637  33.5303494
  43.9694438  31.5230832  33.9915266  42.1745888  42.9526117  29.4534375
  42.0356974  42.5844901  30.3260313  41.3860485  43.4673756  29.2818333
  42.7694040  48.0535213  20.7959912  42.9445796  47.5823257  21.6105534
  42.0826828  48.6800980  21.0241172  43.7251104  42.3307720  26.8423213
  43.3900936  42.2908490  27.7380863  43.2255049  41.6652436  26.3693623
  37.6995348  37.7375350  32.3675794  37.5615145  37.0055589  32.9687333
  38.6100271  37.6484250  32.0859982  46.6610295  39.6763754  17.1160273
  46.0439466  38.9510582  17.0193325  46.1926784  40.4373114  16.7727347
  40.3277648  37.4495309  31.8559474  41.0377267  36.8088501  31.8146092
  40.2846956  37.7008204  32.7785654  39.0406582  34.4360527  33.6755113
  38.5043939  33.9851265  34.3276709  38.4523291  34.5706436  32.9325577
  37.3355126  51.2024576  27.5699772  37.5751724  51.8343100  28.2478790
  36.4924322  50.8512616  27.8565131  38.4508841  33.8949178  16.2381577
  37.5738307  33.7737979  15.8743823  38.9266594  33.1035257  15.9860465
  29.9710981  38.6826338  26.3323084  30.6582021  38.3688068  25.7444099
  29.8159110  39.5867703  26.0590335  34.7745703  33.5716535  30.7608108
  34.6903892  32.9642204  30.0258518  33.9528410  34.0625553  30.7617604
  41.8482988  47.0103699  29.9741276  41.7753159  47.8158670  30.4860580
  41.4060381  47.2095664  29.1489297  41.6372767  46.2475469  23.4844097
  40.8540289  46.7897149  23.5782322  42.3365512  46.7649448  23.8838338
  44.9469417  32.0570098  26.1278303  45.4438117  31.3040060  25.8079373
  44.1756399  32.0934415  25.5621512  52.7999175  37.7610464  27.7696594
  52.7889051  38.6435179  27.3990527  51.9316554  37.4082014  27.5751131
  44.3081671  46.9090533  32.1299434  45.0209643  47.5437997  32.0575336
  43.8171700  47.0054399  31.3139436  46.0299198  40.8141785  23.7016726
  45.0955477  40.9343248  23.5321430  46.2075866  39.9114252  23.4376736
  41.5304386  34.1987481  25.8549987  41.1602174  33.6458521  26.5430893
  42.0263478  33.5945615  25.3024987  49.4171749  36.6559105  24.2366760
  49.8832202  37.4887096  24.1627063  49.8679250  36.1904086  24.9412019
  39.3593585  44.6584976  32.9505005  40.0603044  45.2921459  33.1034399
  38.8888700  44.9999708  32.1900645  47.4847980  43.0002926  21.2352912
  47.7607824  42.8859520  22.1446786  46.6152479  42.6020411  21.1965085
  47.3888412  29.0239692  28.2757662  46.4751492  29.2543918  28.4439868
  47.8181514  29.1078136  29.1271694  44.1202044  47.2489277  24.8785726
  44.3024439  46.4310933  25.3413478  44.9435030  47.4656969  24.4410616
  44.4544210  46.1757462  22.1400774  44.9831976  45.6649916  21.5270936
  44.7172430  45.8599992  23.0046307  34.9561303  44.1921331  29.8836108
  35.5414739  43.4465019  30.0164012  34.7586141  44.5025288  30.7672772
  37.8099958  47.2272579  24.8998550  37.1410333  47.7118706  24.4162590
  37.6712828  47.4741799  25.8141929  29.5478957  36.7626931  28.6040551
  29.5863057  36.2290522  29.3977669  29.0419250  36.2362137  27.9851528
  41.9505226  49.2616322  31.4981209  42.5023535  49.4247944  32.2630294
  42.2911420  49.8520760  30.8261234  36.9269720  31.6091472  32.1003093
  36.9911046  32.4706303  31.6880491  36.8636840  30.9965474  31.3675452
  36.4021992  33.6814604  35.7476128  37.0294031  33.2991682  36.3613652
  35.5449911  33.4628806  36.1131820  33.1787535  35.4891034  21.6794482
  33.4740976  34.5801712  21.6261536  32.2775571  35.4678773  21.3575485
  45.0873614  47.2098298  28.4844891  44.9624753  46.4088037  27.9755836
  45.7452705  47.7044491  27.9958861  36.7081782  33.5647030  27.6622031
  35.9868368  34.1782998  27.5229504  37.4975038  34.1004795  27.5838677
  39.5108096  30.9001457  33.9362683  40.0342497  31.1463753  34.6988992
  39.2920429  31.7321491  33.5165820  34.9075377  33.1705131  21.8033808
  34.5788083  32.2902510  21.6208914  35.2614747  33.1152800  22.6910197
  44.1554955  44.8060034  26.3128793  44.0079918  43.8776741  26.4936363
  44.9808449  44.8280125  25.8285868  38.0217200  33.4578101  22.1709285
  38.3613272  33.9864022  21.4487894  38.4689320  33.7958507  22.9467852
  40.7160641  31.8415152  31.6212353  40.3757461  31.0422965  32.0233033
  40.0099647  32.1416863  31.0489187  41.3677112  28.9264464  30.0739676
  42.1903182  28.4524942  29.9518567  41.6115176  29.7054948  30.5738363
  40.0085347  31.9552723  20.3702578  40.7293709  32.3333975  19.8666295
  39.3850651  32.6741599  20.4737556  44.1516470  32.6597872  21.3060910
  44.3680084  33.5422509  21.0049739  43.6710537  32.2684085  20.5766552
  38.8915691  35.6183585  27.8831655  38.7460272  35.9323888  28.7755936
  38.4140895  36.2368485  27.3302554  40.7512074  32.6086133  27.9312545
  40.7373643  31.7127226  27.5944842  41.4684502  32.6156797  28.5650831
  42.6038205  33.0423473  29.9765672  42.3455983  33.9640544  29.9750002
  42.0723245  32.6453908  30.6666136  47.5484393  46.1474260  22.7555757
  47.7221271  45.5820683  22.0029610  48.0413285  46.9475155  22.5735247
  33.3661353  38.1588929  30.8219316  32.8214821  38.9348737  30.9539590
  34.2440703  38.5059734  30.6638438  40.1548970  31.4900513  23.2000115
  40.2764881  30.5617159  23.3991002  39.8651012  31.5039199  22.2878430
  43.0240160  29.1755423  26.3366835  43.0461857  29.2394757  25.3818814
  43.4408219  28.3359932  26.5307341  53.4023785  38.9110683  24.3746057
  53.8454931  38.1618008  23.9765180  52.5250295  38.9020819  23.9919789
  48.5359566  45.4641025  19.8552656  49.2310471  46.0847717  20.0739970
  48.8782716  44.6136376  20.1305034  34.1527375  37.2858825  33.7149473
  33.4109111  37.4341461  34.3014103  33.8320119  37.5467091  32.8516222
  50.4350989  42.9140730  21.3839986  50.9602313  43.2528003  20.6589306
  50.3473342  41.9787745  21.2003121  42.0971038  46.8274804  33.5129863
  42.4058164  46.5823950  34.3852563  42.8946520  47.0321442  33.0248733
  42.1191650  48.9812713  25.7435240  41.6796640  48.4889092  26.4368096
  42.8699767  48.4385681  25.5027315  34.5983989  45.1724254  25.7459868
  35.4242009  44.8728026  25.3658511  34.2478041  44.4031877  26.1949656
  39.5665522  44.5250722  27.8157541  38.9445531  43.8621427  27.5159769
  40.2370389  44.5511854  27.1331189  32.7992594  43.0910581  26.7048801
  31.9624502  42.6632755  26.5232803  32.7716239  43.2843024  27.6419592
  39.6390049  33.0032510  37.4090047  39.6878205  33.8794633  37.0267817
  40.1812564  32.4609903  36.8361690  39.1279029  43.0754646  21.2916002
  39.2767149  43.7590110  20.6382675  39.9345472  43.0559736  21.8065458
  41.8689338  33.7563883  34.1636406  40.9992647  34.0497449  33.8918994
  42.1048818  34.3404328  34.8843670  36.8831662  39.1019823  22.2977071
  36.6377704  38.1982153  22.4957281  37.0527576  39.1036974  21.3556549
  36.1527309  34.8348181  19.7963232  35.4596554  34.9092536  19.1403268
  35.9079061  34.0708525  20.3184749  44.8240966  26.3943782  27.2002723
  45.1042720  25.7266971  27.8263149  45.6091573  26.5872878  26.6877387
  42.6274434  45.5702776  18.7627749  42.0548402  46.1892963  18.3098221
  43.2007228  46.1202138  19.2967671  45.8471694  45.8539926  19.8936331
  46.7802367  45.7885488  20.0969207  45.7594907  46.6896193  19.4350864
  48.4759711  45.1705797  16.8540279  48.3973342  44.8365660  17.7476037
  49.2969378  45.6627565  16.8531751  43.0121233  36.9063589  16.1043802
  43.9580338  36.7769797  16.1732220  42.6335478  36.1678251  16.5813230
  51.3232391  34.8278579  30.1074881  50.8071439  34.0437036  29.9204810
  52.2072339  34.4997296  30.2721400  48.9843117  28.5719595  26.0670694
  48.7867939  28.2634683  26.9514025  49.5942823  29.2981234  26.1968623
  56.9914452  39.0983543  29.2022634  57.7217840  38.8368831  29.7630338
  56.3821397  38.3612265  29.2424702  55.0729749  37.2391405  29.7997086
  54.3462913  37.1047370  29.1913577  54.6577036  37.5468234  30.6053804
  41.1964150  34.8313565  16.0398687  40.2895605  34.5346678  16.1161401
  41.4740131  34.5343383  15.1732973  32.1142090  36.1519929  26.4897733
  31.7944875  35.2985237  26.1972107  31.5675519  36.3668507  27.2455701
  35.8921998  38.8682370  30.2067240  36.1108008  39.7999478  30.2255274
  36.3047772  38.5090344  30.9922044  42.8126216  29.3750455  22.1942928
  42.0026944  29.0297540  22.5698174  43.5010633  29.0657999  22.7830540
  44.7416764  28.4528502  23.8167225  45.2947803  28.8723955  24.4757248
  44.9786850  27.5264250  23.8590181  40.7649863  34.4415575  39.5969989
  40.6646590  35.3909932  39.5282080  40.5471405  34.1133814  38.7246059
  39.9662935  31.6900501  16.1810666  40.8282099  32.0155399  16.4406483
  40.1513279  30.9031996  15.6683732  31.9830350  39.7722840  28.4590855
  31.2893822  39.3576793  27.9460809  32.7303341  39.8143377  27.8624274
  48.1195571  30.5629027  23.3245889  47.5394240  31.2213831  22.9423942
  47.8531504  29.7406372  22.9133307  46.5699138  29.9634085  25.5267209
  47.0698916  30.0750619  24.7181528  47.2134745  29.6595138  26.1668018
  40.6281133  37.8712714  38.4135050  40.1448215  38.6713074  38.6198939
  40.7142072  37.8820659  37.4602494  33.8967093  39.7041094  26.3356870
  33.8737781  39.8028781  25.3838753  34.2067729  40.5506245  26.6574036
  36.5554471  41.7617249  30.4503484  37.5097724  41.7301191  30.3833416
  36.3566994  41.3007873  31.2653710  37.1453853  40.3318365  33.0174282
  37.9646742  40.8262444  33.0409119  37.4190661  39.4150333  32.9891849
  46.9020449  32.7229117  22.3802237  46.0146304  33.0078768  22.1622432
  47.3174438  32.5622881  21.5329514  50.2534985  32.7475638  26.0956577
  51.0295375  33.2372091  26.3681193  49.5283120  33.1733693  26.5528446
  52.6907544  33.4603258  27.1530517  53.2852035  33.2198994  26.4423826
  52.7634128  32.7410388  27.7804054  34.9104700  47.3036869  27.4673682
  34.7759168  46.5437269  26.9011680  34.4936762  48.0277768  27.0002471
  46.0463663  42.4873792  16.4750257  46.7499513  42.6923795  17.0907913
  45.3226311  43.0550554  16.7399341  46.8761473  38.2383653  22.5952528
  46.8196674  38.6952205  21.7560160  47.4289815  37.4774338  22.4175370
  50.6866279  34.0273385  23.4202647  50.4303213  33.6270021  24.2510855
  50.0619147  34.7417179  23.2952786  54.9978617  36.7669458  25.9273938
  54.4378175  36.8362648  26.7005501  54.3922120  36.5910443  25.2073435
  38.0673826  48.2006186  27.6792125  37.9506210  49.1451618  27.5770815
  37.2466272  47.8979747  28.0677924  47.9550360  42.9256321  18.5248717
  48.7895964  42.4937520  18.3426192  47.7934703  42.7538335  19.4525612
  47.6096252  39.4288435  19.8905057  47.5545056  39.2632706  18.9493501
  46.9842308  40.1364467  20.0467246  32.3988767  34.6656499  33.7166479
  33.0447631  34.1555453  34.2053704  32.1905918  35.4025181  34.2909904
  40.9192378  28.9296544  19.4690375  40.9071048  29.8738383  19.6258646
  41.8115800  28.7466689  19.1749836  39.0928340  48.8534447  30.8948053
  39.9955586  48.8858058  31.2114548  38.8665710  47.9234898  30.9094389
  40.8481942  47.6065434  27.5558132  39.8977573  47.6067296  27.4422504
  41.1514428  46.8598169  27.0394166  44.7344497  25.5239320  23.7236312
  43.9676893  24.9697807  23.8692994  45.1455202  25.5961189  24.5850464
  36.7386258  31.8124116  37.8141493  37.6017720  31.4560921  38.0244818
  36.1651669  31.4738011  38.5016897  53.3924341  53.3953400  28.5565419
  53.0542853  53.2794465  27.6685954  54.2614110  52.9944566  28.5366425
  49.2511157  55.2488877  24.5462310  48.6876022  55.1578814  23.7778598
  49.1363552  54.4288781  25.0264802  46.7975589  56.7440068  27.3846530
  47.5896881  56.4030893  26.9692830  47.0372239  56.8535044  28.3048684
  54.8310716  58.9159845  19.8576775  54.1798696  59.5013925  19.4710789
  55.6255079  59.4466039  19.9171812  48.7566343  56.0048982  20.2563909
  49.5297219  55.4577969  20.1176785  49.1091742  56.8693231  20.4678370
  51.0932621  52.1641648  17.8882359  51.3458142  51.6423169  17.1265822
  50.1557180  52.0007793  17.9909043  56.3085981  56.6050277  20.3945759
  55.6731814  56.6784903  21.1066664  55.9783387  57.1943875  19.7164838
  50.8128910  54.0669754  20.0906734  50.6965168  53.3914657  20.7587818
  50.9231169  53.5802128  19.2738887  53.1560451  53.5279901  23.7953423
  52.7918658  53.0010522  24.5066345  54.0127566  53.1378370  23.6219909
  52.7965937  48.5569801  18.7914772  52.9640340  49.4250037  19.1585243
  52.6063107  48.7197082  17.8676061  49.0053752  53.4700576  26.4917306
  48.0804249  53.3376790  26.6994998  49.2538165  54.2494796  26.9887249
  52.7755158  51.0127458  19.7761439  52.6554784  51.4584509  20.6146919
  52.0807747  51.3612776  19.2174977  46.3662563  53.1133850  27.3261096
  46.4954944  53.3668329  28.2400507  45.6860014  53.7061558  27.0065751
  50.5362050  63.7831100  23.4251570  50.4586080  64.7338925  23.5040050
  49.9323694  63.4376972  24.0826496  58.4740225  51.4848931  20.6041773
  59.3858081  51.7176318  20.4289470  57.9649872  52.0685976  20.0416851
  60.9599039  57.4029188  25.3499718  60.2750077  57.7828089  24.7996751
  61.0442888  58.0124514  26.0831666  52.6337769  56.2049158  25.2605439
  53.0976114  56.4836861  24.4710062  52.3694567  55.3032602  25.0778530
  49.5261850  55.7520639  28.1985202  50.0963207  56.1807908  27.5602687
  50.1169962  55.4703224  28.8969388  51.5706655  52.3272310  22.0695004
  52.2730698  52.7793354  22.5368931  51.2387283  51.6856129  22.6974897
  45.3131989  50.5855863  27.3712138  44.5231043  50.8413391  26.8952248
  45.8043236  51.4004201  27.4764178  59.3295798  57.9261102  30.1217419
  60.1513242  57.5241289  29.8400100  59.3258201  57.8229336  31.0733534
  47.2646734  50.9500442  24.3295615  46.4677897  51.0619136  24.8479110
  47.0372326  51.2887094  23.4636505  43.5969692  50.8386353  29.8027129
  43.8477730  51.7233363  30.0684705  44.1329240  50.6590955  29.0302220
  67.4201791  54.2699851  26.4702390  66.6665500  53.7007249  26.3146395
  67.5549333  54.2362515  27.4173025  52.8100419  59.1413253  22.1457109
  52.6746094  59.9864789  22.5741957  53.3510232  59.3432530  21.3823043
  46.2629817  56.6588691  22.7185035  46.7754337  57.4531941  22.8690599
  46.9152530  55.9614981  22.6518636  48.0724701  59.7754447  24.8007788
  48.2491330  60.6972412  24.6128772  48.8681535  59.4612866  25.2302168
  49.1956017  61.2932621  30.8018130  49.7463442  61.1649684  30.0295124
  48.3567493  61.5927510  30.4513023  44.2278734  54.9877345  23.4944605
  45.0653956  55.3974354  23.2778313  44.4057001  54.0476787  23.4644799
  56.1243166  52.6552426  19.1828438  55.6089789  53.4257030  19.4216825
  55.8520474  51.9817562  19.8061500  61.0977440  55.4084780  21.1181612
  60.3206883  55.0695940  20.6736774  61.7768921  55.4137404  20.4436577
  55.9129469  50.5279518  21.0088219  55.6079604  50.8425667  21.8598362
  56.8659911  50.6060938  21.0515552  54.3575901  56.6869741  22.6581173
  53.8297262  55.9522501  22.3454411  53.8563403  57.4644418  22.4121142
  49.4164215  49.3793869  19.0383670  48.5801528  49.7168555  19.3592945
  49.2768985  49.2442848  18.1010807  52.5028501  54.5049951  15.6616146
  51.5955563  54.2739205  15.8607295  52.9999533  53.7087571  15.8490128
  55.4096580  63.2147459  18.5812832  54.7358279  63.5179155  19.1897790
  55.7962402  64.0176539  18.2318289  55.4090084  52.1104006  23.2013182
  56.1561903  52.6225403  22.8920304  55.6781674  51.7888058  24.0617576
  53.6816734  54.6062546  20.1840136  52.7727954  54.3221579  20.2812606
  53.7111818  55.0261625  19.3243443  58.9136002  58.2169136  23.9531304
  58.4598329  57.3760046  24.0096494  58.2829968  58.8530534  24.2906084
  57.3568941  60.0545633  24.8881122  57.6491915  60.6150690  24.1693488
  57.8667562  60.3474194  25.6434281  44.2504905  52.3268060  24.1655339
  44.0529305  51.7337421  23.4406405  43.6951569  52.0220271  24.8831277
  52.2301628  52.2191167  26.2849932  52.2850238  51.2665003  26.2092408
  51.4192830  52.3750606  26.7691230  53.3792822  56.1471290  17.5228215
  52.9412252  55.4307149  17.0633852  54.1203263  56.3747405  16.9613306
  50.1693988  50.8368227  24.0440311  49.3561854  51.1362397  24.4505503
  50.6652982  50.4423915  24.7614793  52.3202566  60.8325984  25.9774575
  52.2778745  61.0586830  25.0483107  53.2365265  60.5989358  26.1260376
  61.4965937  54.4228487  23.5804533  61.3583835  54.6130083  22.6525723
  61.1402156  55.1847870  24.0372585  61.5235316  56.4905014  28.5915805
  61.9571823  56.3980303  29.4398859  62.2366897  56.4662515  27.9535821
  50.4368367  57.7089013  25.7736538  51.2308965  57.2139333  25.5719113
  49.7260059  57.1806876  25.4104244  55.2563211  60.0907108  30.1248906
  55.3100234  60.6598044  30.8926622  54.3877993  60.2608993  29.7602943
  46.7451130  51.8532094  21.8496291  45.8148718  51.7916550  22.0666253
  46.8408602  51.3308047  21.0532932  46.6636679  48.3786907  24.4374532
  46.9243497  49.2932240  24.3283693  47.4853852  47.9111350  24.5871145
  53.0139643  58.2818035  29.4534375  52.8750729  57.9136819  30.3260313
  52.2254239  58.7965674  29.2818333  53.6087795  63.3827131  20.7959912
  53.7839551  62.9115174  21.6105534  52.9220583  64.0092897  21.0241172
  54.5644858  57.6599637  26.8423213  54.2294691  57.6200407  27.7380863
  54.0648804  56.9944353  26.3693623  57.5004050  55.0055672  17.1160273
  56.8833220  54.2802500  17.0193325  57.0320538  55.7665032  16.7727347
  48.1748880  66.5316494  27.5699772  48.4145478  67.1635018  28.2478790
  47.3318077  66.1804534  27.8565131  49.2902596  49.2241096  16.2381577
  48.4132062  49.1029897  15.8743823  49.7660349  48.4327174  15.9860465
  40.8104736  54.0118256  26.3323084  41.4975776  53.6979986  25.7444099
  40.6552864  54.9159620  26.0590335  45.6139458  48.9008452  30.7608108
  45.5297647  48.2934122  30.0258518  44.7922164  49.3917471  30.7617604
  52.6876742  62.3395616  29.9741276  52.6146914  63.1450588  30.4860580
  52.2454135  62.5387582  29.1489297  52.4766522  61.5767386  23.4844097
  51.6934044  62.1189067  23.5782322  53.1759267  62.0941366  23.8838338
  55.1475426  62.2382450  32.1299434  55.8603398  62.8729915  32.0575336
  54.6565454  62.3346316  31.3139436  56.8692952  56.1433703  23.7016726
  55.9349231  56.2635165  23.5321430  57.0469621  55.2406170  23.4376736
  60.2565504  51.9851022  24.2366760  60.7225956  52.8179014  24.1627063
  60.7073004  51.5196004  24.9412019  58.3241735  58.3294844  21.2352912
  58.6001579  58.2151438  22.1446786  57.4546234  57.9312328  21.1965085
  54.9595799  62.5781194  24.8785726  55.1418193  61.7602850  25.3413478
  55.7828785  62.7948887  24.4410616  55.2937964  61.5049380  22.1400774
  55.8225731  60.9941834  21.5270936  55.5566184  61.1891910  23.0046307
  45.7955057  59.5213249  29.8836108  46.3808494  58.7756937  30.0164012
  45.5979896  59.8317206  30.7672772  48.6493712  62.5564496  24.8998550
  47.9804088  63.0410624  24.4162590  48.5106582  62.8033717  25.8141929
  40.3872712  52.0918849  28.6040551  40.4256811  51.5582440  29.3977669
  39.8813005  51.5654055  27.9851528  52.7898981  64.5908240  31.4981209
  53.3417289  64.7539861  32.2630294  53.1305174  65.1812678  30.8261234
  44.0181289  50.8182951  21.6794482  44.3134731  49.9093630  21.6261536
  43.1169325  50.7970691  21.3575485  55.9267368  62.5390215  28.4844891
  55.8018508  61.7379955  27.9755836  56.5846459  63.0336409  27.9958861
  57.9902277  60.3399235  30.1124441  57.0432612  60.2204587  30.0402768
  58.3385050  59.4521733  30.1950702  45.7469131  48.4997049  21.8033808
  45.4181837  47.6194428  21.6208914  46.1008502  48.4444718  22.6910197
  54.9948710  60.1351952  26.3128793  54.8473672  59.2068659  26.4936363
  55.8202203  60.1572042  25.8285868  48.8610954  48.7870019  22.1709285
  49.2007027  49.3155940  21.4487894  49.3083075  49.1250425  22.9467852
  58.5982832  60.9580510  27.3993666  59.5229379  60.7523372  27.2618117
  58.4298135  60.7096911  28.3083007  50.8479101  47.2844640  20.3702578
  51.5687464  47.6625893  19.8666295  50.2244405  48.0033517  20.4737556
  54.9910224  47.9889789  21.3060910  55.2073839  48.8714427  21.0049739
  54.5104291  47.5976003  20.5766552  49.7309446  50.9475502  27.8831655
  49.5854026  51.2615806  28.7755936  49.2534649  51.5660403  27.3302554
  58.3878148  61.4766178  22.7555757  58.5615026  60.9112600  22.0029610
  58.8807039  62.2767073  22.5735247  44.2055108  53.4880847  30.8219316
  43.6608576  54.2640655  30.9539590  45.0834458  53.8351651  30.6638438
  50.9942724  46.8192431  23.2000115  51.1158636  45.8909077  23.3991002
  50.7044767  46.8331117  22.2878430  64.2417539  54.2402601  24.3746057
  64.6848685  53.4909926  23.9765180  63.3644049  54.2312737  23.9919789
  59.3753320  60.7932942  19.8552656  60.0704225  61.4139635  20.0739970
  59.7176471  59.9428293  20.1305034  61.2744744  58.2432648  21.3839986
  61.7996068  58.5819920  20.6589306  61.1867096  57.3079663  21.2003121
  52.9364792  62.1566721  33.5129863  53.2451919  61.9115868  34.3852563
  53.7340274  62.3613360  33.0248733  52.9585404  64.3104631  25.7435240
  52.5190395  63.8181010  26.4368096  53.7093521  63.7677599  25.5027315
  45.4377743  60.5016172  25.7459868  46.2635763  60.2019944  25.3658511
  45.0871795  59.7323794  26.1949656  50.4059276  59.8542640  27.8157541
  49.7839286  59.1913345  27.5159769  51.0764143  59.8803772  27.1331189
  43.6386348  58.4202498  26.7048801  42.8018257  57.9924673  26.5232803
  43.6109994  58.6134942  27.6419592  49.9672783  58.4046563  21.2916002
  50.1160904  59.0882028  20.6382675  50.7739227  58.3851653  21.8065458
  63.7850404  55.7107839  26.7668505  64.6197295  56.1497643  26.9306065
  63.9209533  55.2346492  25.9476750  47.7225416  54.4311741  22.2977071
  47.4771458  53.5274071  22.4957281  47.8921331  54.4328891  21.3556549
  46.9921064  50.1640099  19.7963232  46.2990309  50.2384454  19.1403268
  46.7472816  49.4000442  20.3184749  53.4668189  60.8994694  18.7627749
  52.8942156  61.5184881  18.3098221  54.0400983  61.4494056  19.2967671
  56.6865449  61.1831844  19.8936331  57.6196122  61.1177406  20.0969207
  56.5988662  62.0188111  19.4350864  59.3153465  60.4997714  16.8540279
  59.2367097  60.1657578  17.7476037  60.1363132  60.9919482  16.8531751
  53.8514987  52.2355507  16.1043802  54.7974092  52.1061715  16.1732220
  53.4729232  51.4970169  16.5813230  67.8308206  54.4275460  29.2022634
  68.5611595  54.1660749  29.7630338  67.2215152  53.6904182  29.2424702
  52.0357905  50.1605483  16.0398687  51.1289360  49.8638596  16.1161401
  52.3133886  49.8635301  15.1732973  42.9535845  51.4811846  26.4897733
  42.6338629  50.6277155  26.1972107  42.4069273  51.6960425  27.2455701
  53.6519970  44.7042373  22.1942928  52.8420699  44.3589458  22.5698174
  54.3404387  44.3949916  22.7830540  50.8056689  47.0192418  16.1810666
  51.6675853  47.3447317  16.4406483  50.9907033  46.2323914  15.6683732
  42.8224105  55.1014758  28.4590855  42.1287576  54.6868711  27.9460809
  43.5697096  55.1435294  27.8624274  58.9589326  45.8920945  23.3245889
  58.3787995  46.5505749  22.9423942  58.6925258  45.0698289  22.9133307
  44.7360847  55.0333012  26.3356870  44.7131536  55.1320699  25.3838753
  45.0461484  55.8798162  26.6574036  57.7414204  48.0521035  22.3802237
  56.8540059  48.3370686  22.1622432  58.1568193  47.8914798  21.5329514
  45.7498454  62.6328786  27.4673682  45.6152922  61.8729187  26.9011680
  45.3330516  63.3569686  27.0002471  56.8857417  57.8165710  16.4750257
  57.5893267  58.0215712  17.0907913  56.1620066  58.3842472  16.7399341
  57.7155227  53.5675571  22.5952528  57.6590429  54.0244122  21.7560160
  58.2683570  52.8066256  22.4175370  61.5260033  49.3565303  23.4202647
  61.2696968  48.9561939  24.2510855  60.9012901  50.0709097  23.2952786
  65.8372371  52.0961376  25.9273938  65.2771929  52.1654565  26.7005501
  65.2315875  51.9202361  25.2073435  48.9067580  63.5298103  27.6792125
  48.7899964  64.4743536  27.5770815  48.0860026  63.2271665  28.0677924
  58.7944115  58.2548239  18.5248717  59.6289718  57.8229437  18.3426192
  58.6328457  58.0830253  19.4525612  58.4490007  54.7580352  19.8905057
  58.3938811  54.5924624  18.9493501  57.8236062  55.4656385  20.0467246
  43.2382522  49.9948417  33.7166479  43.8841385  49.4847371  34.2053704
  43.0299673  50.7317098  34.2909904  51.7586132  44.2588461  19.4690375
  51.7464802  45.2030301  19.6258646  52.6509554  44.0758607  19.1749836
  49.9322094  64.1826365  30.8948053  50.8349341  64.2149975  31.2114548
  49.7059464  63.2526816  30.9094389  51.6875696  62.9357352  27.5558132
  50.7371327  62.9359213  27.4422504  51.9908182  62.1890086  27.0394166
  55.5738252  40.8531238  23.7236312  54.8070647  40.2989725  23.8692994
  55.9848957  40.9253107  24.5850464  67.4228390  68.7717890  28.6203894
  68.0606800  68.6524637  27.9167234  67.3049233  69.7198734  28.6791846
  64.2318096  68.7245318  28.5565419  63.8936607  68.6086383  27.6685954
  65.1007864  68.3236483  28.5366425  60.0904912  70.5780795  24.5462310
  59.5269777  70.4870732  23.7778598  59.9757307  69.7580699  25.0264802
  64.7137879  69.8780170  34.5151624  64.7026520  69.4832968  33.6432128
  64.8758518  69.1446242  35.1085396  57.6369344  72.0731986  27.3846530
  58.4290635  71.7322811  26.9692830  57.8765994  72.1826961  28.3048684
  65.6704470  74.2451762  19.8576775  65.0192450  74.8305843  19.4710789
  66.4648833  74.7757957  19.9171812  59.5960097  71.3340899  20.2563909
  60.3690973  70.7869887  20.1176785  59.9485496  72.1985149  20.4678370
  61.4345140  72.6617282  33.4630808  61.1435006  73.5662913  33.3477475
  62.0702124  72.7033809  34.1774878  62.3601347  70.0394130  30.0532168
  62.9564919  69.8150153  29.3389131  62.4176318  69.2978876  30.6557616
  61.9326375  67.4933566  17.8882359  62.1851896  66.9715087  17.1265822
  60.9950934  67.3299711  17.9909043  66.9769658  66.4969344  25.6957102
  67.7632747  66.0788767  25.3447519  67.2408362  67.4015436  25.8638751
  67.1479735  71.9342194  20.3945759  66.5125568  72.0076821  21.1066664
  66.8177142  72.5235793  19.7164838  72.3778085  66.4344577  26.5990081
  73.1103257  65.8643794  26.8327910  71.6217441  66.0466178  27.0396586
  61.6522664  69.3961671  20.0906734  61.5358922  68.7206575  20.7587818
  61.7624924  68.9094045  19.2738887  63.9954205  68.8571819  23.7953423
  63.6312412  68.3302440  24.5066345  64.8521321  68.4670288  23.6219909
  69.9003506  60.1466151  31.0584689  69.5686830  61.0161562  30.8345904
  69.3049119  59.8302435  31.7378720  63.6359692  63.8861718  18.7914772
  63.8034094  64.7541955  19.1585243  63.4456861  64.0489000  17.8676061
  66.3935025  72.3478697  30.4580602  66.0935748  73.2503736  30.3496409
  66.0486085  72.0810880  31.3101755  59.8447507  68.7992494  26.4917306
  58.9198003  68.6668708  26.6994998  60.0931920  69.5786713  26.9887249
  69.7932169  64.8661237  28.1378039  68.8849046  64.7976646  27.8436800
  69.7419765  65.3433182  28.9659865  63.6148913  66.3419376  19.7761439
  63.4948538  66.7876427  20.6146919  62.9201501  66.6904693  19.2174977
  57.2056318  68.4425768  27.3261096  57.3348699  68.6960247  28.2400507
  56.5253769  69.0353476  27.0065751  61.3755805  79.1123018  23.4251570
  61.2979835  80.0630843  23.5040050  60.7717449  78.7668890  24.0826496
  63.8673035  66.2850883  36.0812937  63.0906369  66.8444803  36.0715801
  64.5063598  66.7707666  36.6027807  71.6593815  63.0677676  29.9155913
  71.0168196  63.3610209  29.2695708  71.1548744  62.9530596  30.7209110
  69.3133979  66.8140849  20.6041773  70.2251835  67.0468236  20.4289470
  68.8043626  67.3977893  20.0416851  62.1219407  69.0936336  35.6430904
  62.8634091  69.6321380  35.3665727  61.4156392  69.7202625  35.8002455
  67.5974747  71.2365477  34.2403065  68.0058103  70.7947887  33.4957698
  66.8752008  70.6618104  34.4937258  63.9505817  66.1738084  31.6136622
  64.7967012  66.5977497  31.7571271  63.8904454  65.5171708  32.3075185
  67.9203561  71.7966667  27.9955354  67.2912424  71.9612382  27.2931422
  67.5329223  72.2108277  28.7666318  71.7992793  72.7321105  25.3499718
  71.1143831  73.1120007  24.7996751  71.8836643  73.3416432  26.0831666
  67.1005262  63.8342452  33.2717796  66.8566194  64.5884512  32.7352071
  67.3765193  64.2127800  34.1065043  69.0543725  70.3781064  31.9495061
  69.2660620  71.0212824  31.2729442  69.0073473  69.5443381  31.4816991
  66.6569954  62.9898885  28.8531633  65.7954433  63.2880139  29.1448371
  66.6832388  63.2069284  27.9212666  63.4731523  71.5341076  25.2605439
  63.9369869  71.8128778  24.4710062  63.2088321  70.6324520  25.0778530
  60.3655604  71.0812557  28.1985202  60.9356961  71.5099825  27.5602687
  60.9563716  70.7995142  28.8969388  62.4100409  67.6564228  22.0695004
  63.1124453  68.1085272  22.5368931  62.0781038  67.0148047  22.6974897
  60.8580771  66.2475985  36.4446214  60.2279431  66.9292265  36.6781610
  60.7516859  66.1359066  35.4999352  56.1525743  65.9147781  27.3712138
  55.3624797  66.1705309  26.8952248  56.6436991  66.7296118  27.4764178
  70.1689553  73.2553020  30.1217419  70.9906996  72.8533207  29.8400100
  70.1651956  73.1521254  31.0733534  58.1040489  66.2792360  24.3295615
  57.3071652  66.3911054  24.8479110  57.8766081  66.6179012  23.4636505
  63.9346156  72.8037063  32.2778129  63.9990589  73.2657470  33.1136301
  63.2257080  72.1734428  32.4060439  54.4363446  66.1678271  29.8027129
  54.6871485  67.0525281  30.0684705  54.9722995  65.9882873  29.0302220
  78.2595546  69.5991768  26.4702390  77.5059254  69.0299166  26.3146395
  78.3943087  69.5654433  27.4173025  63.6494174  74.4705171  22.1457109
  63.5139849  75.3156706  22.5741957  64.1903986  74.6724448  21.3823043
  57.1023571  71.9880609  22.7185035  57.6148092  72.7823859  22.8690599
  57.7546284  71.2906899  22.6518636  58.9118456  75.1046365  24.8007788
  59.0885084  76.0264330  24.6128772  59.7075289  74.7904784  25.2302168
  63.0529474  61.9654629  36.3991721  63.7939188  62.5661783  36.3196184
  63.2847397  61.2232267  35.8409764  58.1970813  67.1510997  34.6769951
  58.0824328  66.2496254  34.9777050  57.3415330  67.3974693  34.3254768
  65.2762650  75.0928737  36.2757452  64.8326504  74.3065116  35.9578356
  65.9379864  75.2807888  35.6101342  60.0349771  76.6224539  30.8018130
  60.5857197  76.4941602  30.0295124  59.1961247  76.9219428  30.4513023
  67.3743888  75.3731537  34.3038853  67.3562364  76.1940418  33.8119122
  68.2963808  75.2485612  34.5288994  63.8316942  72.8875666  35.1462361
  64.3645279  72.1263955  34.9161669  63.3031024  72.5949318  35.8886516
  66.9986637  57.9935732  30.6756003  66.6550907  58.8837374  30.5995114
  67.3665600  57.8037390  29.8125588  55.0672488  70.3169263  23.4944605
  55.9047710  70.7266271  23.2778313  55.2450756  69.3768705  23.4644799
  66.9636920  67.9844343  19.1828438  66.4483544  68.7548948  19.4216825
  66.6914229  67.3109480  19.8061500  64.5484031  62.8294044  24.2413676
  63.6925628  62.4400895  24.0619315  64.9610983  62.9086005  23.3813462
  66.0783178  60.3640388  28.6405236  65.5747973  60.3270523  27.8273041
  66.3713785  61.2733130  28.7001893  62.3226064  60.4479117  27.6471418
  63.1879060  60.2521926  27.2877307  62.3903573  60.2189469  28.5740775
  71.9371194  70.7376698  21.1181612  71.1600637  70.3987858  20.6736774
  72.6162675  70.7429321  20.4436577  66.7523223  65.8571436  21.0088219
  66.4473359  66.1717585  21.8598362  67.7053665  65.9352855  21.0515552
  65.1969655  72.0161659  22.6581173  64.6691017  71.2814418  22.3454411
  64.6957158  72.7936335  22.4121142  70.1762501  70.2110679  27.7748220
  69.5186176  70.9009941  27.8628348  70.9802900  70.6007111  28.1182206
  59.9288383  62.6781325  25.0187785  60.5032135  62.4556507  24.2860978
  60.5159365  62.7470020  25.7716386  68.9867960  68.5655052  25.8252161
  69.4999842  69.1985044  26.3273871  69.6369184  67.9656248  25.4595521
  60.2557970  64.7085786  19.0383670  59.4195282  65.0460473  19.3592945
  60.1162740  64.5734766  18.1010807  62.2311050  59.5522574  23.7462854
  61.5775463  59.2371591  23.1219469  62.1891525  58.9298315  24.4722677
  63.3422255  69.8341869  15.6616146  62.4349317  69.6031123  15.8607295
  63.8393287  69.0379488  15.8490128  66.2490334  78.5439376  18.5812832
  65.5752033  78.8471073  19.1897790  66.6356156  79.3468457  18.2318289
  65.4648791  66.0404508  28.0710502  64.5471352  66.2619455  27.9132190
  65.8808934  66.1150818  27.2122209  66.2483839  67.4395923  23.2013182
  66.9955658  67.9517321  22.8920304  66.5175428  67.1179976  24.0617576
  64.5210489  69.9354464  20.1840136  63.6121708  69.6513497  20.2812606
  64.5505573  70.3553543  19.3243443  69.7529756  73.5461054  23.9531304
  69.2992083  72.7051963  24.0096494  69.1223723  74.1822452  24.2906084
  68.6962676  64.4753040  25.1831971  67.9585433  63.9630426  25.5142214
  68.9489449  64.0353421  24.3715248  68.1962695  75.3837550  24.8881122
  68.4885670  75.9442607  24.1693488  68.7061316  75.6766111  25.6434281
  68.7974303  57.2529292  25.7773741  69.1033180  56.3926655  25.4899656
  69.5226908  57.8446912  25.5772735  55.0898659  67.6559978  24.1655339
  54.8923059  67.0629339  23.4406405  54.5345323  67.3512188  24.8831277
  63.0695383  67.5483085  26.2849932  63.1243993  66.5956921  26.2092408
  62.2586585  67.7042524  26.7691230  64.2186577  71.4763208  17.5228215
  63.7806007  70.7599067  17.0633852  64.9597017  71.7039323  16.9613306
  61.0087743  66.1660144  24.0440311  60.1955608  66.4654315  24.4505503
  61.5046737  65.7715833  24.7614793  63.1596321  76.1617901  25.9774575
  63.1172499  76.3878748  25.0483107  64.0759020  75.9281276  26.1260376
  66.6061954  66.6301969  32.8755204  66.9611342  66.8573442  33.7349670
  67.2534086  66.9620346  32.2532460  72.3359691  69.7520405  23.5804533
  72.1977590  69.9422001  22.6525723  71.9795910  70.5139788  24.0372585
  60.5001818  63.7378500  29.6601546  61.1401197  63.5967259  28.9624509
  59.6679348  63.4513013  29.2840148  72.3629071  71.8196932  28.5915805
  72.7965578  71.7272221  29.4398859  73.0760652  71.7954432  27.9535821
  61.2762121  73.0380930  25.7736538  62.0702720  72.5431250  25.5719113
  60.5653814  72.5098793  25.4104244  66.0956966  75.4199026  30.1248906
  66.1493988  75.9889962  30.8926622  65.2271747  75.5900911  29.7602943
  57.5844885  67.1824012  21.8496291  56.6542473  67.1208468  22.0666253
  57.6802357  66.6599965  21.0532932  57.5030434  63.7078825  24.4374532
  57.7637251  64.6224158  24.3283693  58.3247606  63.2403267  24.5871145
  58.9755359  65.1216582  31.6073357  59.6478413  64.9133944  30.9586006
  58.1485146  64.9238668  31.1678589  73.2244621  71.8620632  31.1248690
  73.4180511  72.7666443  31.3707965  73.1245239  71.4028051  31.9587275
  64.8780931  61.7478523  33.6239018  64.2308846  62.4468473  33.5303494
  65.6481947  62.1814667  33.9915266  68.2859729  72.0127375  36.6989571
  68.1345236  71.7837927  35.7819655  68.2764409  72.9697977  36.7120916
  65.0545066  69.5859288  31.6835837  65.9837126  69.7370448  31.5104805
  64.6336096  69.6743309  30.8284484  63.8533397  73.6109952  29.4534375
  63.7144483  73.2428737  30.3260313  63.0647994  74.1257592  29.2818333
  64.4481549  78.7119049  20.7959912  64.6233305  78.2407092  21.6105534
  63.7614337  79.3384815  21.0241172  65.4038613  72.9891555  26.8423213
  65.0688445  72.9492325  27.7380863  64.9042558  72.3236271  26.3693623
  59.3782857  68.3959185  32.3675794  59.2402654  67.6639424  32.9687333
  60.2887780  68.3068085  32.0859982  68.3397804  70.3347589  17.1160273
  67.7226975  69.6094418  17.0193325  67.8714293  71.0956950  16.7727347
  62.0065157  68.1079144  31.8559474  62.7164776  67.4672337  31.8146092
  61.9634465  68.3592039  32.7785654  69.9951936  75.0446498  34.7766053
  69.9364482  74.3605718  34.1096636  70.3971454  75.7865488  34.3246679
  60.7194091  65.0944362  33.6755113  60.1831448  64.6435101  34.3276709
  60.1310800  65.2290271  32.9325577  59.0142635  81.8608412  27.5699772
  59.2539233  82.4926936  28.2478790  58.1711831  81.5096452  27.8565131
  60.1296350  64.5533014  16.2381577  59.2525816  64.4321814  15.8743823
  60.6054103  63.7619092  15.9860465  69.9969343  73.0086082  33.0080033
  69.1096122  72.6712003  33.1306431  70.5667894  72.2769113  33.2448798
  51.6498490  69.3410173  26.3323084  52.3369530  69.0271903  25.7444099
  51.4946619  70.2451538  26.0590335  56.4533212  64.2300370  30.7608108
  56.3691401  63.6226039  30.0258518  55.6315919  64.7209388  30.7617604
  63.5270497  77.6687534  29.9741276  63.4540668  78.4742505  30.4860580
  63.0847890  77.8679500  29.1489297  63.3160276  76.9059304  23.4844097
  62.5327798  77.4480984  23.5782322  64.0153021  77.4233284  23.8838338
  66.6256926  62.7153933  26.1278303  67.1225626  61.9623896  25.8079373
  65.8543908  62.7518250  25.5621512  74.4786684  68.4194299  27.7696594
  74.4676560  69.3019014  27.3990527  73.6104063  68.0665850  27.5751131
  65.9869180  77.5674368  32.1299434  66.6997152  78.2021833  32.0575336
  65.4959209  77.6638234  31.3139436  67.7086707  71.4725621  23.7016726
  66.7742986  71.5927083  23.5321430  67.8863375  70.5698087  23.4376736
  63.2091895  64.8571316  25.8549987  62.8389683  64.3042357  26.5430893
  63.7050987  64.2529450  25.3024987  71.0959258  67.3142940  24.2366760
  71.5619711  68.1470932  24.1627063  71.5466759  66.8487922  24.9412019
  61.0381094  75.3168811  32.9505005  61.7390553  75.9505294  33.1034399
  60.5676209  75.6583543  32.1900645  69.1635489  73.6586761  21.2352912
  69.4395333  73.5443356  22.1446786  68.2939988  73.2604246  21.1965085
  69.0675921  59.6823527  28.2757662  68.1539001  59.9127754  28.4439868
  69.4969023  59.7661971  29.1271694  68.8382380  67.8713419  30.7757556
  68.1853830  68.1189326  30.1210008  69.2162759  67.0577557  30.4420033
  65.7989553  77.9073112  24.8785726  65.9811948  77.0894768  25.3413478
  66.6222539  78.1240804  24.4410616  66.1331719  76.8341297  22.1400774
  66.6619485  76.3233752  21.5270936  66.3959939  76.5183827  23.0046307
  64.8869953  68.6133230  37.2623593  64.2110590  68.5127359  37.9325968
  65.7097586  68.4572444  37.7259590  56.6348812  74.8505167  29.8836108
  57.2202248  74.1048854  30.0164012  56.4373650  75.1609123  30.7672772
  59.4887467  77.8856414  24.8998550  58.8197842  78.3702542  24.4162590
  59.3500337  78.1325634  25.8141929  51.2266466  67.4210767  28.6040551
  51.2650566  66.8874357  29.3977669  50.7206759  66.8945972  27.9851528
  63.6292735  79.9200157  31.4981209  64.1811043  80.0831779  32.2630294
  63.9698929  80.5104595  30.8261234  58.6057229  62.2675307  32.1003093
  58.6698555  63.1290138  31.6880491  58.5424349  61.6549309  31.3675452
  58.0809501  64.3398440  35.7476128  58.7081540  63.9575517  36.3613652
  57.2237420  64.1212642  36.1131820  68.4803610  74.7461415  37.3529863
  69.0243514  75.3591373  36.8584818  67.8990455  75.3040993  37.8696876
  54.8575044  66.1474869  21.6794482  55.1528485  65.2385547  21.6261536
  53.9563080  66.1262608  21.3575485  66.7661123  77.8682133  28.4844891
  66.6412262  77.0671873  27.9755836  67.4240214  78.3628326  27.9958861
  58.3869291  64.2230865  27.6622031  57.6655877  64.8366833  27.5229504
  59.1762547  64.7588630  27.5838677  68.8296031  75.6691153  30.1124441
  67.8826367  75.5496504  30.0402768  69.1778804  74.7813651  30.1950702
  61.1895604  61.5585292  33.9362683  61.7130006  61.8047589  34.6988992
  60.9707938  62.3905327  33.5165820  56.5862886  63.8288967  21.8033808
  56.2575592  62.9486345  21.6208914  56.9402256  63.7736635  22.6910197
  65.8342464  75.4643869  26.3128793  65.6867427  74.5360577  26.4936363
  66.6595958  75.4863960  25.8285868  59.7004709  64.1161936  22.1709285
  60.0400781  64.6447858  21.4487894  60.1476829  64.4542342  22.9467852
  69.4376586  76.2872428  27.3993666  70.3623134  76.0815289  27.2618117
  69.2691890  76.0388829  28.3083007  62.3948150  62.4998987  31.6212353
  62.0544970  61.7006800  32.0233033  61.6887156  62.8000698  31.0489187
  63.0464621  59.5848299  30.0739676  63.8690691  59.1108778  29.9518567
  63.2902685  60.3638783  30.5738363  61.6872856  62.6136558  20.3702578
  62.4081218  62.9917811  19.8666295  61.0638160  63.3325435  20.4737556
  65.8303979  63.3181707  21.3060910  66.0467593  64.2006345  21.0049739
  65.3498046  62.9267920  20.5766552  60.5703200  66.2767420  27.8831655
  60.4247781  66.5907723  28.7755936  60.0928404  66.8952320  27.3302554
  62.4299583  63.2669968  27.9312545  62.4161152  62.3711061  27.5944842
  63.1472011  63.2740632  28.5650831  64.2825714  63.7007308  29.9765672
  64.0243492  64.6224379  29.9750002  63.7510754  63.3037743  30.6666136
  69.2271902  76.8058095  22.7555757  69.4008780  76.2404518  22.0029610
  69.7200794  77.6058990  22.5735247  55.0448862  68.8172765  30.8219316
  54.5002330  69.5932572  30.9539590  55.9228212  69.1643569  30.6638438
  61.8336479  62.1484348  23.2000115  61.9552390  61.2200995  23.3991002
  61.5438521  62.1623034  22.2878430  64.7027669  59.8339259  26.3366835
  64.7249366  59.8978592  25.3818814  65.1195728  58.9943767  26.5307341
  75.0811294  69.5694518  24.3746057  75.5242440  68.8201844  23.9765180
  74.2037804  69.5604655  23.9919789  70.2147075  76.1224860  19.8552656
  70.9097980  76.7431553  20.0739970  70.5570225  75.2720211  20.1305034
  55.8314884  67.9442661  33.7149473  55.0896620  68.0925296  34.3014103
  55.5107628  68.2050926  32.8516222  72.1138498  73.5724565  21.3839986
  72.6389822  73.9111838  20.6589306  72.0260851  72.6371581  21.2003121
  63.7758547  77.4858639  33.5129863  64.0845673  77.2407786  34.3852563
  64.5734029  77.6905277  33.0248733  63.7979159  79.6396549  25.7435240
  63.3584149  79.1472927  26.4368096  64.5487276  79.0969516  25.5027315
  56.2771498  75.8308090  25.7459868  57.1029518  75.5311861  25.3658511
  55.9265550  75.0615712  26.1949656  61.2453031  75.1834558  27.8157541
  60.6233040  74.5205263  27.5159769  61.9157898  75.2095690  27.1331189
  54.4780103  73.7494416  26.7048801  53.6412011  73.3216590  26.5232803
  54.4503748  73.9426859  27.6419592  61.3177558  63.6616346  37.4090047
  61.3665714  64.5378469  37.0267817  61.8600073  63.1193739  36.8361690
  71.8032404  74.2057469  36.6891184  71.0127948  74.1881608  36.1495684
  71.5665759  74.7445763  37.4440221  71.9230279  71.0549935  34.0023913
  71.9728284  70.8899943  34.9439436  71.8144203  70.1877194  33.6121794
  60.8066538  73.7338481  21.2916002  60.9554658  74.4173945  20.6382675
  61.6132981  73.7143571  21.8065458  69.2134042  67.0380863  35.3183220
  70.1143904  66.8987328  35.0267217  69.2882016  67.2035318  36.2581397
  63.5476847  64.4147718  34.1636406  62.6780156  64.7081284  33.8918994
  63.7836327  64.9988163  34.8843670  73.4248476  73.4746877  34.2465934
  73.1333284  73.8376857  35.0829395  72.8120607  72.7613885  34.0679267
  74.6244158  71.0399757  26.7668505  75.4591050  71.4789561  26.9306065
  74.7603287  70.5638410  25.9476750  71.6735664  68.5979492  32.7145992
  72.1489786  68.7907138  31.9064844  70.7501230  68.6538677  32.4689376
  58.5619171  69.7603659  22.2977071  58.3165213  68.8565989  22.4957281
  58.7315085  69.7620809  21.3556549  57.8314818  65.4932016  19.7963232
  57.1384063  65.5676371  19.1403268  57.5866570  64.7292360  20.3184749
  66.5028475  57.0527618  27.2002723  66.7830229  56.3850807  27.8263149
  67.2879082  57.2456713  26.6877387  64.3061943  76.2286612  18.7627749
  63.7335910  76.8476799  18.3098221  64.8794737  76.7785973  19.2967671
  70.3737333  65.4745252  30.9474298  71.3254756  65.5743349  30.9686522
  70.2040784  64.6823520  31.4572382  68.3951713  62.5600835  31.1333699
  67.8001645  62.8405848  30.4380188  68.1101409  63.0494736  31.9050440
  67.5259203  76.5123762  19.8936331  68.4589876  76.4469323  20.0969207
  67.4382416  77.3480029  19.4350864  70.1547220  75.8289632  16.8540279
  70.0760851  75.4949496  17.7476037  70.9756887  76.3211400  16.8531751
  72.8525411  68.6951371  30.0616598  72.8201731  67.7567372  30.2476281
  73.4626035  68.7735408  29.3282423  64.6908742  67.5647424  16.1043802
  65.6367847  67.4353632  16.1732220  64.3122987  66.8262086  16.5813230
  73.0019900  65.4862415  30.1074881  72.4858948  64.7020871  29.9204810
  73.8859848  65.1581131  30.2721400  70.6630626  59.2303430  26.0670694
  70.4655448  58.9218519  26.9514025  71.2730332  59.9565069  26.1968623
  78.6701961  69.7567378  29.2022634  79.4005349  69.4952666  29.7630338
  78.0608906  69.0196100  29.2424702  76.7517258  67.8975241  29.7997086
  76.0250422  67.7631206  29.1913577  76.3364545  68.2052069  30.6053804
  64.5747434  71.6165170  37.5644459  65.4950444  71.7943769  37.7584505
  64.5397017  70.6721216  37.4124158  62.8751659  65.4897401  16.0398687
  61.9683114  65.1930513  16.1161401  63.1527640  65.1927219  15.1732973
  53.7929599  66.8103764  26.4897733  53.4732384  65.9569072  26.1972107
  53.2463028  67.0252342  27.2455701  57.5709507  69.5266205  30.2067240
  57.7895517  70.4583313  30.2255274  57.9835281  69.1674179  30.9922044
  64.4913725  60.0334290  22.1942928  63.6814453  59.6881375  22.5698174
  65.1798142  59.7241834  22.7830540  66.4204273  59.1112337  23.8167225
  66.9735312  59.5307791  24.4757248  66.6574359  58.1848085  23.8590181
  61.6450444  62.3484336  16.1810666  62.5069608  62.6739234  16.4406483
  61.8300788  61.5615832  15.6683732  53.6617859  70.4306676  28.4590855
  52.9681331  70.0160628  27.9460809  54.4090850  70.4727212  27.8624274
  69.7983080  61.2212862  23.3245889  69.2181749  61.8797666  22.9423942
  69.5319013  60.3990207  22.9133307  68.2486647  60.6217920  25.5267209
  68.7486425  60.7334455  24.7181528  68.8922254  60.3178973  26.1668018
  62.3068642  68.5296550  38.4135050  61.8235724  69.3296910  38.6198939
  62.3929581  68.5404495  37.4602494  55.5754602  70.3624929  26.3356870
  55.5525290  70.4612617  25.3838753  55.8855238  71.2090080  26.6574036
  58.2341980  72.4201084  30.4503484  59.1885233  72.3885027  30.3833416
  58.0354503  71.9591708  31.2653710  58.8241362  70.9902200  33.0174282
  59.6434251  71.4846279  33.0409119  59.0978170  70.0734169  32.9891849
  68.5807958  63.3812953  22.3802237  67.6933813  63.6662603  22.1622432
  68.9961947  63.2206716  21.5329514  71.9322494  63.4059474  26.0956577
  72.7082884  63.8955926  26.3681193  71.2070628  63.8317528  26.5528446
  74.3695053  64.1187093  27.1530517  74.9639544  63.8782829  26.4423826
  74.4421637  63.3994224  27.7804054  56.5892209  77.9620704  27.4673682
  56.4546677  77.2021105  26.9011680  56.1724271  78.6861604  27.0002471
  67.7251172  73.1457627  16.4750257  68.4287022  73.3507630  17.0907913
  67.0013820  73.7134389  16.7399341  68.5548982  68.8967489  22.5952528
  68.4984183  69.3536040  21.7560160  69.1077324  68.1358173  22.4175370
  72.3653788  64.6857221  23.4202647  72.1090722  64.2853856  24.2510855
  71.7406656  65.4001014  23.2952786  76.6766126  67.4253294  25.9273938
  76.1165684  67.4946483  26.7005501  76.0709629  67.2494278  25.2073435
  59.7461335  78.8590021  27.6792125  59.6293719  79.8035453  27.5770815
  58.9253781  78.5563582  28.0677924  69.6337869  73.5840157  18.5248717
  70.4683473  73.1521355  18.3426192  69.4722212  73.4122170  19.4525612
  69.2883761  70.0872270  19.8905057  69.2332565  69.9216541  18.9493501
  68.6629817  70.7948303  20.0467246  54.0776276  65.3240334  33.7166479
  54.7235140  64.8139288  34.2053704  53.8693427  66.0609016  34.2909904
  66.6029668  72.3921182  39.2158620  67.4720828  72.5661834  38.8545254
  66.1236420  73.2115599  39.0934349  62.5979887  59.5880379  19.4690375
  62.5858557  60.5322219  19.6258646  63.4903309  59.4050524  19.1749836
  60.7715849  79.5118283  30.8948053  61.6743095  79.5441893  31.2114548
  60.5453219  78.5818734  30.9094389  62.5269451  78.2649269  27.5558132
  61.5765082  78.2651131  27.4422504  62.8301937  77.5182004  27.0394166
  66.4132006  56.1823156  23.7236312  65.6464402  55.6281642  23.8692994
  66.8242711  56.2545024  24.5850464  78.2622144  84.1009808  28.6203894
  78.9000554  83.9816555  27.9167234  78.1442987  85.0490652  28.6791846
  75.0711850  84.0537236  28.5565419  74.7330362  83.9378301  27.6685954
  75.9401619  83.6528401  28.5366425  70.9298666  85.9072712  24.5462310
  70.3663531  85.8162649  23.7778598  70.8151061  85.0872617  25.0264802
  75.5531633  85.2072088  34.5151624  75.5420274  84.8124886  33.6432128
  75.7152273  84.4738160  35.1085396  68.4763098  87.4023904  27.3846530
  69.2684390  87.0614728  26.9692830  68.7159748  87.5118879  28.3048684
  76.5098225  89.5743680  19.8576775  75.8586205  90.1597760  19.4710789
  77.3042588  90.1049875  19.9171812  70.4353852  86.6632817  20.2563909
  71.2084728  86.1161804  20.1176785  70.7879251  87.5277066  20.4678370
  72.2738895  87.9909199  33.4630808  71.9828761  88.8954830  33.3477475
  72.9095879  88.0325727  34.1774878  73.1995101  85.3686048  30.0532168
  73.7958674  85.1442070  29.3389131  73.2570073  84.6270793  30.6557616
  72.7720130  82.8225483  17.8882359  73.0245650  82.3007004  17.1265822
  71.8344689  82.6591629  17.9909043  77.8163413  81.8261262  25.6957102
  78.6026502  81.4080685  25.3447519  78.0802117  82.7307354  25.8638751
  77.9873490  87.2634112  20.3945759  77.3519323  87.3368738  21.1066664
  77.6570896  87.8527711  19.7164838  83.2171840  81.7636495  26.5990081
  83.9497012  81.1935712  26.8327910  82.4611195  81.3758095  27.0396586
  72.4916419  84.7253589  20.0906734  72.3752677  84.0498493  20.7587818
  72.6018678  84.2385963  19.2738887  74.8347959  84.1863736  23.7953423
  74.4706167  83.6594357  24.5066345  75.6915075  83.7962205  23.6219909
  80.7397260  75.4758069  31.0584689  80.4080585  76.3453480  30.8345904
  80.1442873  75.1594353  31.7378720  74.4753446  79.2153636  18.7914772
  74.6427849  80.0833872  19.1585243  74.2850616  79.3780918  17.8676061
  77.2328780  87.6770615  30.4580602  76.9329503  88.5795654  30.3496409
  76.8879839  87.4102798  31.3101755  70.6841261  84.1284412  26.4917306
  69.7591758  83.9960626  26.6994998  70.9325674  84.9078631  26.9887249
  80.6325923  80.1953155  28.1378039  79.7242801  80.1268563  27.8436800
  80.5813519  80.6725100  28.9659865  74.4542667  81.6711293  19.7761439
  74.3342293  82.1168344  20.6146919  73.7595256  82.0196611  19.2174977
  68.0450072  83.7717685  27.3261096  68.1742453  84.0252164  28.2400507
  67.3647523  84.3645393  27.0065751  72.2149559  94.4414935  23.4251570
  72.1373589  95.3922760  23.5040050  71.6111203  94.0960808  24.0826496
  74.7066789  81.6142801  36.0812937  73.9300123  82.1736721  36.0715801
  75.3457352  82.0999584  36.6027807  82.4987570  78.3969593  29.9155913
  81.8561950  78.6902127  29.2695708  81.9942498  78.2822514  30.7209110
  80.1527733  82.1432767  20.6041773  81.0645590  82.3760153  20.4289470
  79.6437381  82.7269811  20.0416851  72.9613162  84.4228254  35.6430904
  73.7027846  84.9613298  35.3665727  72.2550147  85.0494543  35.8002455
  78.4368501  86.5657394  34.2403065  78.8451857  86.1239805  33.4957698
  77.7145763  85.9910022  34.4937258  74.7899571  81.5030001  31.6136622
  75.6360766  81.9269415  31.7571271  74.7298209  80.8463626  32.3075185
  78.7597316  87.1258585  27.9955354  78.1306178  87.2904299  27.2931422
  78.3722978  87.5400195  28.7666318  82.6386548  88.0613023  25.3499718
  81.9537586  88.4411924  24.7996751  82.7230397  88.6708350  26.0831666
  77.9399017  79.1634370  33.2717796  77.6959948  79.9176430  32.7352071
  78.2158947  79.5419717  34.1065043  79.8937479  85.7072982  31.9495061
  80.1054375  86.3504742  31.2729442  79.8467228  84.8735299  31.4816991
  77.4963708  78.3190803  28.8531633  76.6348187  78.6172056  29.1448371
  77.5226143  78.5361202  27.9212666  74.3125278  86.8632993  25.2605439
  74.7763623  87.1420696  24.4710062  74.0482076  85.9616438  25.0778530
  71.2049359  86.4104475  28.1985202  71.7750716  86.8391743  27.5602687
  71.7957471  86.1287059  28.8969388  73.2494164  82.9856146  22.0695004
  73.9518207  83.4377189  22.5368931  72.9174792  82.3439964  22.6974897
  71.6974525  81.5767902  36.4446214  71.0673186  82.2584183  36.6781610
  71.5910613  81.4650984  35.4999352  66.9919498  81.2439698  27.3712138
  66.2018552  81.4997227  26.8952248  67.4830745  82.0588036  27.4764178
  81.0083307  88.5844937  30.1217419  81.8300751  88.1825125  29.8400100
  81.0045710  88.4813172  31.0733534  68.9434243  81.6084277  24.3295615
  68.1465406  81.7202972  24.8479110  68.7159835  81.9470930  23.4636505
  74.7739911  88.1328981  32.2778129  74.8384343  88.5949388  33.1136301
  74.0650835  87.5026346  32.4060439  65.2757201  81.4970189  29.8027129
  65.5265239  82.3817199  30.0684705  65.8116749  81.3174790  29.0302220
  89.0989300  84.9283686  26.4702390  88.3453009  84.3591084  26.3146395
  89.2336842  84.8946350  27.4173025  74.4887928  89.7997088  22.1457109
  74.3533603  90.6448624  22.5741957  75.0297741  90.0016366  21.3823043
  70.9755268  75.8788668  38.8071465  70.5822214  75.3254867  39.4819109
  71.7921408  76.1899247  39.1977982  67.9417326  87.3172526  22.7185035
  68.4541846  88.1115776  22.8690599  68.5940039  86.6198817  22.6518636
  69.7512210  90.4338282  24.8007788  69.9278839  91.3556247  24.6128772
  70.5469044  90.1196702  25.2302168  73.8923229  77.2946547  36.3991721
  74.6332942  77.8953700  36.3196184  74.1241152  76.5524185  35.8409764
  69.0364567  82.4802914  34.6769951  68.9218082  81.5788172  34.9777050
  68.1809085  82.7266611  34.3254768  76.1156405  90.4220655  36.2757452
  75.6720259  89.6357033  35.9578356  76.7773618  90.6099805  35.6101342
  70.8743526  91.9516456  30.8018130  71.4250951  91.8233520  30.0295124
  70.0355002  92.2511345  30.4513023  78.2137643  90.7023455  34.3038853
  78.1956118  91.5232336  33.8119122  79.1357563  90.5777530  34.5288994
  74.6710697  88.2167584  35.1462361  75.2039034  87.4555872  34.9161669
  74.1424778  87.9241236  35.8886516  77.8380392  73.3227650  30.6756003
  77.4944661  74.2129292  30.5995114  78.2059355  73.1329308  29.8125588
  65.9066243  85.6461181  23.4944605  66.7441465  86.0558189  23.2778313
  66.0844510  84.7060623  23.4644799  77.8030675  83.3136261  19.1828438
  77.2877298  84.0840866  19.4216825  77.5307983  82.6401397  19.8061500
  75.3877786  78.1585962  24.2413676  74.5319382  77.7692812  24.0619315
  75.8004737  78.2377923  23.3813462  76.9176932  75.6932305  28.6405236
  76.4141728  75.6562440  27.8273041  77.2107539  76.6025048  28.7001893
  73.1619818  75.7771035  27.6471418  74.0272815  75.5813844  27.2877307
  73.2297327  75.5481387  28.5740775  82.7764949  86.0668616  21.1181612
  81.9994392  85.7279775  20.6736774  83.4556430  86.0721239  20.4436577
  77.5916978  81.1863353  21.0088219  77.2867113  81.5009502  21.8598362
  78.5447420  81.2644773  21.0515552  76.0363410  87.3453577  22.6581173
  75.5084771  86.6106336  22.3454411  75.5350912  88.1228253  22.4121142
  81.0156256  85.5402597  27.7748220  80.3579930  86.2301858  27.8628348
  81.8196655  85.9299029  28.1182206  70.7682137  78.0073243  25.0187785
  71.3425889  77.7848424  24.2860978  71.3553120  78.0761937  25.7716386
  79.8261714  83.8946970  25.8252161  80.3393596  84.5276962  26.3273871
  80.4762938  83.2948165  25.4595521  71.0951724  80.0377704  19.0383670
  70.2589037  80.3752390  19.3592945  70.9556494  79.9026684  18.1010807
  73.0704805  74.8814492  23.7462854  72.4169217  74.5663509  23.1219469
  73.0285279  74.2590232  24.4722677  74.1816010  85.1633787  15.6616146
  73.2743072  84.9323040  15.8607295  74.6787042  84.3671406  15.8490128
  76.3042545  81.3696425  28.0710502  75.3865107  81.5911372  27.9132190
  76.7202689  81.4442736  27.2122209  77.0877593  82.7687841  23.2013182
  77.8349412  83.2809238  22.8920304  77.3569183  82.4471894  24.0617576
  75.3604243  85.2646382  20.1840136  74.4515463  84.9805415  20.2812606
  75.3899327  85.6845460  19.3243443  80.5923511  88.8752971  23.9531304
  80.1385838  88.0343881  24.0096494  79.9617477  89.5114370  24.2906084
  79.5356430  79.8044957  25.1831971  78.7979187  79.2922343  25.5142214
  79.7883204  79.3645339  24.3715248  79.0356450  90.7129468  24.8881122
  79.3279424  91.2734525  24.1693488  79.5455071  91.0058029  25.6434281
  79.6368058  72.5821209  25.7773741  79.9426934  71.7218573  25.4899656
  80.3620662  73.1738829  25.5772735  65.9292414  82.9851896  24.1655339
  65.7316813  82.3921257  23.4406405  65.3739078  82.6804106  24.8831277
  73.9089137  82.8775002  26.2849932  73.9637747  81.9248839  26.2092408
  73.0980339  83.0334441  26.7691230  71.8481497  81.4952062  24.0440311
  71.0349363  81.7946233  24.4505503  72.3440491  81.1007751  24.7614793
  73.9990075  91.4909819  25.9774575  73.9566254  91.7170665  25.0483107
  74.9152774  91.2573194  26.1260376  77.4455709  81.9593887  32.8755204
  77.8005097  82.1865360  33.7349670  78.0927840  82.2912263  32.2532460
  83.1753446  85.0812322  23.5804533  83.0371344  85.2713918  22.6525723
  82.8189665  85.8431705  24.0372585  71.3395572  79.0670418  29.6601546
  71.9794951  78.9259177  28.9624509  70.5073103  78.7804931  29.2840148
  83.2022825  87.1488849  28.5915805  83.6359332  87.0564139  29.4398859
  83.9154406  87.1246350  27.9535821  72.1155876  88.3672848  25.7736538
  72.9096474  87.8723168  25.5719113  71.4047568  87.8390711  25.4104244
  76.9350720  90.7490944  30.1248906  76.9887743  91.3181880  30.8926622
  76.0665502  90.9192829  29.7602943  68.4238639  82.5115930  21.8496291
  67.4936227  82.4500385  22.0666253  68.5196111  81.9891882  21.0532932
  68.3424188  79.0370743  24.4374532  68.6031006  79.9516076  24.3283693
  69.1641361  78.5695185  24.5871145  69.8149114  80.4508500  31.6073357
  70.4872167  80.2425862  30.9586006  68.9878900  80.2530586  31.1678589
  84.0638375  87.1912550  31.1248690  84.2574265  88.0958361  31.3707965
  83.9638993  86.7319969  31.9587275  75.7174686  77.0770441  33.6239018
  75.0702601  77.7760390  33.5303494  76.4875701  77.5106585  33.9915266
  79.1253484  87.3419293  36.6989571  78.9738990  87.1129845  35.7819655
  79.1158163  88.2989894  36.7120916  75.8938820  84.9151206  31.6835837
  76.8230880  85.0662365  31.5104805  75.4729850  85.0035226  30.8284484
  74.6927152  88.9401870  29.4534375  74.5538238  88.5720654  30.3260313
  73.9041748  89.4549509  29.2818333  76.2432367  88.3183473  26.8423213
  75.9082200  88.2784243  27.7380863  75.7436313  87.6528189  26.3693623
  70.2176611  83.7251103  32.3675794  70.0796409  82.9931342  32.9687333
  71.1281534  83.6360003  32.0859982  72.8458912  83.4371062  31.8559474
  73.5558530  82.7964254  31.8146092  72.8028220  83.6883957  32.7785654
  80.8345690  90.3738415  34.7766053  80.7758237  89.6897636  34.1096636
  81.2365209  91.1157405  34.3246679  71.5587846  80.4236280  33.6755113
  71.0225203  79.9727018  34.3276709  70.9704554  80.5582189  32.9325577
  69.8536389  97.1900329  27.5699772  70.0932987  97.8218853  28.2478790
  69.0105586  96.8388369  27.8565131  70.9690105  79.8824931  16.2381577
  70.0919571  79.7613732  15.8743823  71.4447858  79.0911010  15.9860465
  80.8363098  88.3377999  33.0080033  79.9489876  88.0003921  33.1306431
  81.4061649  87.6061031  33.2448798  62.4892245  84.6702091  26.3323084
  63.1763285  84.3563821  25.7444099  62.3340373  85.5743456  26.0590335
  67.2926967  79.5592288  30.7608108  67.2085156  78.9517957  30.0258518
  66.4709673  80.0501306  30.7617604  74.3664251  92.9979452  29.9741276
  74.2934423  93.8034423  30.4860580  73.9241644  93.1971417  29.1489297
  74.1554031  92.2351222  23.4844097  73.3721553  92.7772902  23.5782322
  74.8546776  92.7525201  23.8838338  77.4650681  78.0445851  26.1278303
  77.9619380  77.2915813  25.8079373  76.6937662  78.0810168  25.5621512
  85.3180438  83.7486217  27.7696594  85.3070314  84.6310932  27.3990527
  84.4497818  83.3957768  27.5751131  76.8262935  92.8966286  32.1299434
  77.5390907  93.5313751  32.0575336  76.3352963  92.9930152  31.3139436
  78.5480461  86.8017538  23.7016726  77.6136740  86.9219001  23.5321430
  78.7257130  85.8990005  23.4376736  74.0485650  80.1863234  25.8549987
  73.6783437  79.6334275  26.5430893  74.5444742  79.5821368  25.3024987
  81.9353013  82.6434858  24.2366760  82.4013465  83.4762849  24.1627063
  82.3860513  82.1779839  24.9412019  71.8774848  90.6460729  32.9505005
  72.5784308  91.2797212  33.1034399  71.4069963  90.9875461  32.1900645
  80.0029244  88.9878679  21.2352912  80.2789088  88.8735274  22.1446786
  79.1333743  88.5896164  21.1965085  79.9069676  75.0115445  28.2757662
  78.9932755  75.2419671  28.4439868  80.3362777  75.0953889  29.1271694
  79.6776134  83.2005337  30.7757556  79.0247584  83.4481244  30.1210008
  80.0556514  82.3869475  30.4420033  76.6383308  93.2365030  24.8785726
  76.8205702  92.4186686  25.3413478  77.4616294  93.4532722  24.4410616
  76.9725473  92.1633215  22.1400774  77.5013240  91.6525670  21.5270936
  77.2353693  91.8475745  23.0046307  75.7263707  83.9425148  37.2623593
  75.0504344  83.8419277  37.9325968  76.5491341  83.7864361  37.7259590
  67.4742566  90.1797084  29.8836108  68.0596003  89.4340772  30.0164012
  67.2767405  90.4901041  30.7672772  70.3281221  93.2148332  24.8998550
  69.6591597  93.6994459  24.4162590  70.1894091  93.4617552  25.8141929
  62.0660221  82.7502684  28.6040551  62.1044320  82.2166275  29.3977669
  61.5600514  82.2237890  27.9851528  74.4686490  95.2492075  31.4981209
  75.0204798  95.4123697  32.2630294  74.8092683  95.8396513  30.8261234
  69.4450983  77.5967225  32.1003093  69.5092310  78.4582056  31.6880491
  69.3818103  76.9841227  31.3675452  68.9203256  79.6690357  35.7476128
  69.5475295  79.2867435  36.3613652  68.0631175  79.4504559  36.1131820
  79.3197364  90.0753333  37.3529863  79.8637268  90.6883291  36.8584818
  78.7384209  90.6332911  37.8696876  65.6968798  81.4766787  21.6794482
  65.9922240  80.5677465  21.6261536  64.7956834  81.4554526  21.3575485
  77.6054877  93.1974051  28.4844891  77.4806017  92.3963790  27.9755836
  78.2633968  93.6920244  27.9958861  69.2263045  79.5522783  27.6622031
  68.5049631  80.1658751  27.5229504  70.0156301  80.0880548  27.5838677
  79.6689786  90.9983071  30.1124441  78.7220121  90.8788422  30.0402768
  80.0172559  90.1105569  30.1950702  72.0289359  76.8877210  33.9362683
  72.5523761  77.1339506  34.6988992  71.8101692  77.7197244  33.5165820
  67.4256640  79.1580884  21.8033808  67.0969346  78.2778263  21.6208914
  67.7796011  79.1028553  22.6910197  76.6736219  90.7935787  26.3128793
  76.5261181  89.8652494  26.4936363  77.4989712  90.8155878  25.8285868
  70.5398463  79.4453854  22.1709285  70.8794536  79.9739775  21.4487894
  70.9870584  79.7834260  22.9467852  80.2770341  91.6164346  27.3993666
  81.2016888  91.4107207  27.2618117  80.1085644  91.3680747  28.3083007
  73.2341904  77.8290905  31.6212353  72.8938724  77.0298718  32.0233033
  72.5280910  78.1292616  31.0489187  73.8858376  74.9140217  30.0739676
  74.7084445  74.4400695  29.9518567  74.1296439  75.6930701  30.5738363
  72.5266610  77.9428476  20.3702578  73.2474973  78.3209728  19.8666295
  71.9031914  78.6617352  20.4737556  76.6697733  78.6473625  21.3060910
  76.8861348  79.5298262  21.0049739  76.1891800  78.2559838  20.5766552
  71.4096955  81.6059338  27.8831655  71.2641535  81.9199641  28.7755936
  70.9322158  82.2244238  27.3302554  73.2693337  78.5961886  27.9312545
  73.2554906  77.7002979  27.5944842  73.9865766  78.6032550  28.5650831
  75.1219468  79.0299226  29.9765672  74.8637246  79.9516297  29.9750002
  74.5904509  78.6329661  30.6666136  80.0665657  92.1350013  22.7555757
  80.2402534  91.5696436  22.0029610  80.5594548  92.9350908  22.5735247
  65.8842617  84.1464682  30.8219316  65.3396085  84.9224490  30.9539590
  66.7621967  84.4935487  30.6638438  72.6730233  77.4776266  23.2000115
  72.7946145  76.5492912  23.3991002  72.3832276  77.4914952  22.2878430
  75.5421424  75.1631177  26.3366835  75.5643121  75.2270510  25.3818814
  75.9589483  74.3235685  26.5307341  85.9205048  84.8986436  24.3746057
  86.3636194  84.1493761  23.9765180  85.0431558  84.8896572  23.9919789
  66.6708639  83.2734578  33.7149473  65.9290375  83.4217214  34.3014103
  66.3501383  83.5342844  32.8516222  74.6152301  92.8150557  33.5129863
  74.9239428  92.5699703  34.3852563  75.4127783  93.0197195  33.0248733
  74.6372913  94.9688466  25.7435240  74.1977904  94.4764845  26.4368096
  75.3881030  94.4261434  25.5027315  67.1165252  91.1600007  25.7459868
  67.9423272  90.8603779  25.3658511  66.7659304  90.3907630  26.1949656
  72.0846785  90.5126475  27.8157541  71.4626795  89.8497180  27.5159769
  72.7551652  90.5387607  27.1331189  65.3173857  89.0786334  26.7048801
  64.4805766  88.6508508  26.5232803  65.2897503  89.2718777  27.6419592
  72.1571313  78.9908263  37.4090047  72.2059468  79.8670386  37.0267817
  72.6993827  78.4485656  36.8361690  82.6426159  89.5349387  36.6891184
  81.8521702  89.5173526  36.1495684  82.4059513  90.0737680  37.4440221
  82.7624034  86.3841853  34.0023913  82.8122039  86.2191861  34.9439436
  82.6537957  85.5169112  33.6121794  71.6460292  89.0630399  21.2916002
  71.7948413  89.7465863  20.6382675  72.4526736  89.0435489  21.8065458
  80.0527796  82.3672781  35.3183220  80.9537659  82.2279246  35.0267217
  80.1275771  82.5327236  36.2581397  74.3870601  79.7439636  34.1636406
  73.5173911  80.0373202  33.8918994  74.6230082  80.3280081  34.8843670
  84.2642231  88.8038795  34.2465934  83.9727039  89.1668775  35.0829395
  83.6514362  88.0905803  34.0679267  85.4637913  86.3691674  26.7668505
  86.2984804  86.8081478  26.9306065  85.5997042  85.8930328  25.9476750
  82.5129419  83.9271409  32.7145992  82.9883540  84.1199056  31.9064844
  81.5894984  83.9830595  32.4689376  69.4012925  85.0895576  22.2977071
  69.1558967  84.1857906  22.4957281  69.5708840  85.0912727  21.3556549
  77.0909635  75.9619253  31.6801826  77.6091579  76.6980280  31.3548315
  76.7364768  76.2683246  32.5148585  68.6708573  80.8223934  19.7963232
  67.9777818  80.8968289  19.1403268  68.4260325  80.0584278  20.3184749
  77.3422229  72.3819535  27.2002723  77.6223983  71.7142724  27.8263149
  78.1272836  72.5748631  26.6877387  81.2131088  80.8037169  30.9474298
  82.1648511  80.9035267  30.9686522  81.0434538  80.0115438  31.4572382
  79.2345467  77.8892753  31.1333699  78.6395399  78.1697765  30.4380188
  78.9495164  78.3786653  31.9050440  83.6919166  84.0243289  30.0616598
  83.6595486  83.0859290  30.2476281  84.3019789  84.1027326  29.3282423
  75.5302496  82.8939342  16.1043802  76.4761601  82.7645550  16.1732220
  75.1516741  82.1554004  16.5813230  83.8413654  80.8154332  30.1074881
  83.3252703  80.0312789  29.9204810  84.7253603  80.4873049  30.2721400
  81.5024381  74.5595348  26.0670694  81.3049202  74.2510436  26.9514025
  82.1124087  75.2856987  26.1968623  89.5095715  85.0859296  29.2022634
  90.2399104  84.8244584  29.7630338  88.9002661  84.3488018  29.2424702
  87.5911013  83.2267158  29.7997086  86.8644176  83.0923123  29.1913577
  87.1758299  83.5343987  30.6053804  75.4141189  86.9457088  37.5644459
  76.3344198  87.1235687  37.7584505  75.3790772  86.0013133  37.4124158
  73.7145414  80.8189318  16.0398687  72.8076869  80.5222431  16.1161401
  73.9921395  80.5219136  15.1732973  64.6323354  82.1395682  26.4897733
  64.3126138  81.2860990  26.1972107  64.0856782  82.3544260  27.2455701
  68.4103261  84.8558123  30.2067240  68.6289271  85.7875231  30.2255274
  68.8229035  84.4966097  30.9922044  75.3307479  75.3626208  22.1942928
  74.5208208  75.0173293  22.5698174  76.0191896  75.0533752  22.7830540
  77.2598028  74.4404255  23.8167225  77.8129066  74.8599708  24.4757248
  77.4968114  73.5140003  23.8590181  73.2831127  80.4291329  39.5969989
  73.1827854  81.3785685  39.5282080  73.0652669  80.1009567  38.7246059
  72.4844198  77.6776254  16.1810666  73.3463362  78.0031152  16.4406483
  72.6694542  76.8907749  15.6683732  64.5011614  85.7598593  28.4590855
  63.8075085  85.3452546  27.9460809  65.2484605  85.8019130  27.8624274
  80.6376835  76.5504780  23.3245889  80.0575504  77.2089584  22.9423942
  80.3712767  75.7282125  22.9133307  79.0880401  75.9509838  25.5267209
  79.5880179  76.0626372  24.7181528  79.7316009  75.6470891  26.1668018
  73.1462397  83.8588467  38.4135050  72.6629479  84.6588827  38.6198939
  73.2323336  83.8696412  37.4602494  66.4148356  85.6916847  26.3356870
  66.3919045  85.7904534  25.3838753  66.7248993  86.5381998  26.6574036
  69.0735734  87.7493002  30.4503484  70.0278988  87.7176944  30.3833416
  68.8748258  87.2883626  31.2653710  69.6635116  86.3194118  33.0174282
  70.4828005  86.8138197  33.0409119  69.9371924  85.4026086  32.9891849
  79.4201713  78.7104870  22.3802237  78.5327568  78.9954521  22.1622432
  79.8355702  78.5498634  21.5329514  82.7716249  78.7351391  26.0956577
  83.5476639  79.2247844  26.3681193  82.0464383  79.1609446  26.5528446
  85.2088807  79.4479011  27.1530517  85.8033298  79.2074747  26.4423826
  85.2815391  78.7286141  27.7804054  67.4285963  93.2912622  27.4673682
  67.2940431  92.5313022  26.9011680  67.0118025  94.0153521  27.0002471
  79.3942736  84.2259406  22.5952528  79.3377938  84.6827958  21.7560160
  79.9471079  83.4650091  22.4175370  83.2047542  80.0149138  23.4202647
  82.9484477  79.6145774  24.2510855  82.5800410  80.7292932  23.2952786
  87.5159880  82.7545211  25.9273938  86.9559438  82.8238401  26.7005501
  86.9103384  82.5786196  25.2073435  70.5855089  94.1881939  27.6792125
  70.4687473  95.1327371  27.5770815  69.7647535  93.8855500  28.0677924
  80.1277516  85.4164188  19.8905057  80.0726320  85.2508459  18.9493501
  79.5023571  86.1240221  20.0467246  64.9170031  80.6532252  33.7166479
  65.5628894  80.1431206  34.2053704  64.7087182  81.3900934  34.2909904
  77.4423423  87.7213099  39.2158620  78.3114583  87.8953752  38.8545254
  76.9630174  88.5407516  39.0934349  73.4373641  74.9172297  19.4690375
  73.4252311  75.8614137  19.6258646  74.3297063  74.7342442  19.1749836
  71.6109603  94.8410200  30.8948053  72.5136850  94.8733811  31.2114548
  71.3846973  93.9110651  30.9094389  73.3663205  93.5941187  27.5558132
  72.4158836  93.5943049  27.4422504  73.6695691  92.8473922  27.0394166
  77.2525761  71.5115073  23.7236312  76.4858156  70.9573560  23.8692994
  77.6636466  71.5836942  24.5850464  69.2567522  77.7999869  37.8141493
  70.1198983  77.4436674  38.0244818  68.6832932  77.4613764  38.5016897
  86.3925388 100.5364005  34.5151624  86.3814029 100.1416804  33.6432128
  86.5546027  99.8030078  35.1085396  83.1132649 103.3201117  33.4630808
  82.8222515 104.2246748  33.3477475  83.7489633 103.3617645  34.1774878
  84.0388856 100.6977966  30.0532168  84.6352428 100.4733988  29.3389131
  84.0963827  99.9562711  30.6557616  91.5791015  90.8049987  31.0584689
  91.2474339  91.6745398  30.8345904  90.9836628  90.4886271  31.7378720
  78.8843827  99.1009603  27.3261096  79.0136208  99.3544082  28.2400507
  78.2041278  99.6937311  27.0065751  85.5460544  96.9434718  36.0812937
  84.7693878  97.5028638  36.0715801  86.1851107  97.4291501  36.6027807
  93.3381324  93.7261511  29.9155913  92.6955705  94.0194044  29.2695708
  92.8336253  93.6114431  30.7209110  83.8006916  99.7520172  35.6430904
  84.5421600 100.2905216  35.3665727  83.0943901 100.3786460  35.8002455
  89.2762256 101.8949312  34.2403065  89.6845612 101.4531723  33.4957698
  88.5539517 101.3201940  34.4937258  85.6293326  96.8321919  31.6136622
  86.4754521  97.2561332  31.7571271  85.5691963  96.1755543  32.3075185
  88.7792771  94.4926287  33.2717796  88.5353703  95.2468348  32.7352071
  89.0552702  94.8711635  34.1065043  88.3357463  93.6482720  28.8531633
  87.4741942  93.9463974  29.1448371  88.3619897  93.8653119  27.9212666
  82.5368280  96.9059820  36.4446214  81.9066940  97.5876101  36.6781610
  82.4304368  96.7942901  35.4999352  77.8313252  96.5731616  27.3712138
  77.0412306  96.8289144  26.8952248  78.3224500  97.3879954  27.4764178
  85.6133665 103.4620898  32.2778129  85.6778098 103.9241306  33.1136301
  84.9044589 102.8318263  32.4060439  76.1150955  96.8262106  29.8027129
  76.3658994  97.7109116  30.0684705  76.6510504  96.6466708  29.0302220
  81.8149022  91.2080586  38.8071465  81.4215968  90.6546784  39.4819109
  82.6315163  91.5191164  39.1977982  84.7316983  92.6238465  36.3991721
  85.4726697  93.2245618  36.3196184  84.9634906  91.8816103  35.8409764
  79.8758321  97.8094832  34.6769951  79.7611837  96.9080089  34.9777050
  79.0202839  98.0558529  34.3254768  85.5104451 103.5459502  35.1462361
  86.0432788 102.7847790  34.9161669  84.9818533 103.2533154  35.8886516
  88.6774146  88.6519568  30.6756003  88.3338416  89.5421209  30.5995114
  89.0453109  88.4621225  29.8125588  87.7570687  91.0224223  28.6405236
  87.2535482  90.9854358  27.8273041  88.0501294  91.9316966  28.7001893
  84.0013573  91.1062953  27.6471418  84.8666569  90.9105761  27.2877307
  84.0691082  90.8773304  28.5740775  81.6075892  93.3365161  25.0187785
  82.1819644  93.1140342  24.2860978  82.1946874  93.4053855  25.7716386
  83.9098559  90.2106409  23.7462854  83.2562972  89.8955427  23.1219469
  83.8679034  89.5882150  24.4722677  90.4761812  87.9113127  25.7773741
  90.7820689  87.0510490  25.4899656  91.2014417  88.5030747  25.5772735
  88.2849463  97.2885804  32.8755204  88.6398851  97.5157277  33.7349670
  88.9321595  97.6204181  32.2532460  82.1789326  94.3962335  29.6601546
  82.8188706  94.2551094  28.9624509  81.3466857  94.1096849  29.2840148
  79.1817943  94.3662660  24.4374532  79.4424760  95.2807993  24.3283693
  80.0035115  93.8987103  24.5871145  80.6542868  95.7800417  31.6073357
  81.3265922  95.5717780  30.9586006  79.8272655  95.5822503  31.1678589
  86.5568440  92.4062358  33.6239018  85.9096355  93.1052308  33.5303494
  87.3269456  92.8398502  33.9915266  86.7332575 100.2443123  31.6835837
  87.6624635 100.3954283  31.5104805  86.3123605 100.3327144  30.8284484
  81.0570366  99.0543020  32.3675794  80.9190163  98.3223259  32.9687333
  81.9675289  98.9651920  32.0859982  83.6852666  98.7662980  31.8559474
  84.3952285  98.1256172  31.8146092  83.6421974  99.0175875  32.7785654
  82.3981600  95.7528198  33.6755113  81.8618957  95.3018936  34.3276709
  81.8098309  95.8874106  32.9325577  73.3285999  99.9994009  26.3323084
  74.0157039  99.6855739  25.7444099  73.1734128 100.9035373  26.0590335
  78.1320721  94.8884205  30.7608108  78.0478910  94.2809875  30.0258518
  77.3103428  95.3793224  30.7617604  88.3044435  93.3737769  26.1278303
  88.8013135  92.6207731  25.8079373  87.5331417  93.4102085  25.5621512
  82.7168603 105.9752647  32.9505005  83.4178062 106.6089130  33.1034399
  82.2463718 106.3167378  32.1900645  90.7463430  90.3407362  28.2757662
  89.8326510  90.5711589  28.4439868  91.1756532  90.4245806  29.1271694
  90.5169889  98.5297254  30.7757556  89.8641339  98.7773162  30.1210008
  90.8950268  97.7161392  30.4420033  86.5657462  99.2717065  37.2623593
  85.8898099  99.1711195  37.9325968  87.3885095  99.1156279  37.7259590
  78.3136321 105.5089002  29.8836108  78.8989757 104.7632690  30.0164012
  78.1161159 105.8192959  30.7672772  72.9053975  98.0794602  28.6040551
  72.9438075  97.5458193  29.3977669  72.3994268  97.5529808  27.9851528
  80.2844738  92.9259143  32.1003093  80.3486064  93.7873973  31.6880491
  80.2211858  92.3133144  31.3675452  79.7597010  94.9982275  35.7476128
  80.3869049  94.6159352  36.3613652  78.9024929  94.7796477  36.1131820
  80.0656800  94.8814701  27.6622031  79.3443386  95.4950669  27.5229504
  80.8550056  95.4172466  27.5838677  82.8683113  92.2169127  33.9362683
  83.3917515  92.4631424  34.6988992  82.6495447  93.0489162  33.5165820
  84.0735659  93.1582822  31.6212353  83.7332479  92.3590635  32.0233033
  83.3674665  93.4584533  31.0489187  84.7252130  90.2432135  30.0739676
  85.5478200  89.7692613  29.9518567  84.9690194  91.0222619  30.5738363
  82.2490709  96.9351255  27.8831655  82.1035290  97.2491559  28.7755936
  81.7715913  97.5536156  27.3302554  84.1087092  93.9253803  27.9312545
  84.0948661  93.0294897  27.5944842  84.8259520  93.9324467  28.5650831
  85.9613223  94.3591144  29.9765672  85.7031001  95.2808214  29.9750002
  85.4298263  93.9621578  30.6666136  76.7236371  99.4756600  30.8219316
  76.1789839 100.2516408  30.9539590  77.6015721  99.8227404  30.6638438
  86.3815178  90.4923094  26.3366835  86.4036875  90.5562427  25.3818814
  86.7983237  89.6527603  26.5307341  77.5102393  98.6026496  33.7149473
  76.7684129  98.7509132  34.3014103  77.1895137  98.8634762  32.8516222
  82.9965067  94.3200181  37.4090047  83.0453223  95.1962304  37.0267817
  83.5387582  93.7777574  36.8361690  90.8921551  97.6964699  35.3183220
  91.7931413  97.5571164  35.0267217  90.9669525  97.8619154  36.2581397
  85.2264356  95.0731554  34.1636406  84.3567665  95.3665120  33.8918994
  85.4623836  95.6571999  34.8843670  93.3523173  99.2563327  32.7145992
  93.8277295  99.4490973  31.9064844  92.4288739  99.3122513  32.4689376
  87.9303390  91.2911170  31.6801826  88.4485334  92.0272197  31.3548315
  87.5758523  91.5975164  32.5148585  88.1815984  87.7111453  27.2002723
  88.4617738  87.0434642  27.8263149  88.9666591  87.9040549  26.6877387
  92.0524842  96.1329087  30.9474298  93.0042265  96.2327185  30.9686522
  91.8828293  95.3407356  31.4572382  90.0739222  93.2184670  31.1333699
  89.4789154  93.4989683  30.4380188  89.7888918  93.7078571  31.9050440
  94.6807409  96.1446250  30.1074881  94.1646457  95.3604707  29.9204810
  95.5647357  95.8164967  30.2721400  92.3418135  89.8887266  26.0670694
  92.1442957  89.5802354  26.9514025  92.9517841  90.6148905  26.1968623
  86.2534943 102.2749006  37.5644459  87.1737953 102.4527605  37.7584505
  86.2184526 101.3305051  37.4124158  75.4717108  97.4687599  26.4897733
  75.1519893  96.6152908  26.1972107  74.9250537  97.6836178  27.2455701
  79.2497016 100.1850040  30.2067240  79.4683026 101.1167148  30.2255274
  79.6622790  99.8258015  30.9922044  88.0991782  89.7696173  23.8167225
  88.6522821  90.1891626  24.4757248  88.3361868  88.8431921  23.8590181
  84.1224881  95.7583246  39.5969989  84.0221608  96.7077603  39.5282080
  83.9046423  95.4301485  38.7246059  75.3405368 101.0890511  28.4590855
  74.6468840 100.6744464  27.9460809  76.0878359 101.1311047  27.8624274
  83.9856151  99.1880385  38.4135050  83.5023233  99.9880745  38.6198939
  84.0717090  99.1988330  37.4602494  79.9129489 103.0784920  30.4503484
  80.8672742 103.0468862  30.3833416  79.7142012 102.6175543  31.2653710
  80.5028871 101.6486036  33.0174282  81.3221760 102.1430114  33.0409119
  80.7765679 100.7318004  32.9891849  75.7563785  95.9824170  33.7166479
  76.4022649  95.4723124  34.2053704  75.5480936  96.7192851  34.2909904
  88.2817177 103.0505017  39.2158620  89.1508337 103.2245669  38.8545254
  87.8023929 103.8699434  39.0934349  88.0919515  86.8406991  23.7236312
  87.3251911  86.2865478  23.8692994  88.5030220  86.9128860  24.5850464
  80.0961276  93.1291787  37.8141493  80.9592738  92.7728592  38.0244818
  79.5226687  92.7905682  38.5016897  35.9622348   5.7647785  24.0775170
  36.5062252   6.3777743  23.5830125  35.3809192   6.3227363  24.5942183
  39.2851142   5.2243839  23.4136491  38.4946686   5.2067977  22.8740990
  39.0484496   5.7632132  24.1685528  34.0848406   3.4107551  25.9403926
  34.9539566   3.5848204  25.5790561  33.6055158   4.2301968  25.8179656
  45.7440882  15.1196177  15.3449201  46.3819292  15.0002925  14.6412541
  45.6261725  16.0677021  15.4037153  43.0350371  16.2258457  21.2396931
  43.0239012  15.8311255  20.3677435  43.1971011  15.4924530  21.8330703
  39.7557632  19.0095569  20.1876115  39.4647498  19.9141200  20.0722781
  40.3914617  19.0512097  20.9020185  40.6813839  16.3872417  16.7777475
  41.2777411  16.1628440  16.0634438  40.7388811  15.6457163  17.3802923
  44.7147517  18.6956984  17.1825909  44.4148241  19.5982023  17.0741716
  44.3698577  18.4289168  18.0347062  42.1885527  12.6329170  22.8058243
  41.4118861  13.1923090  22.7961108  42.8276090  13.1185953  23.3273113
  49.9806308   9.4155963  16.6401220  49.3380688   9.7088496  15.9941015
  49.4761236   9.3008883  17.4454417  40.4431899  15.4414624  22.3676210
  41.1846584  15.9799668  22.0911034  39.7368885  16.0680912  22.5247762
  45.9187239  17.5843764  20.9648372  46.3270595  17.1426175  20.2203004
  45.1964500  17.0096392  21.2182565  42.2718309  12.5216371  18.3381929
  43.1179504  12.9455784  18.4816578  42.2116947  11.8649995  19.0320492
  46.2416054  18.1444955  14.7200661  45.6124916  18.3090669  14.0176729
  45.8541716  18.5586564  15.4911625  50.1205285  19.0799393  12.0745024
  49.4356324  19.4598294  11.5242058  50.2049135  19.6894719  12.8076972
  45.4217754  10.1820739  19.9963102  45.1778686  10.9362800  19.4597378
  45.6977685  10.5606087  20.8310349  47.3756217  16.7259352  18.6740368
  47.5873112  17.3691111  17.9974749  47.3285965  15.8921668  18.2062298
  39.1793263  12.5954272  23.1691520  38.5491924  13.2770553  23.4026917
  39.0729351  12.4837353  22.2244659  48.4902045  19.6031307  16.8462725
  49.3119489  19.2011494  16.5645407  48.4864448  19.4999541  17.7978841
  42.2558648  19.1515350  19.0023436  42.3203081  19.6135757  19.8381608
  41.5469572  18.5212715  19.1305746  56.5808038  15.9470055  13.1947697
  55.8271746  15.3777454  13.0391701  56.7155579  15.9132720  14.1418331
  38.4574006   6.8975038  25.5316771  38.0640951   6.3441236  26.2064416
  39.2740146   7.2085616  25.9223289  41.3741967   8.3132917  23.1237028
  42.1151680   8.9140070  23.0441490  41.6059890   7.5710554  22.5655070
  36.5183305  13.4989284  21.4015258  36.4036820  12.5974541  21.7022357
  35.6627823  13.7452981  21.0500074  43.5975143  21.4407024  23.0002758
  43.1538997  20.6543403  22.6823663  44.2592356  21.6286175  22.3346649
  38.3562264  22.9702826  17.5263437  38.9069689  22.8419889  16.7540431
  37.5173740  23.2697715  17.1758330  45.6956381  21.7209824  21.0284159
  45.6774856  22.5418705  20.5364429  46.6176301  21.5963899  21.2534301
  42.1529435  19.2353954  21.8707668  42.6857772  18.4742242  21.6406976
  41.6243516  18.9427605  22.6131822  48.4974993  16.5588967  14.4993526
  47.8398668  17.2488228  14.5873655  49.3015393  16.9485399  14.8427513
  46.5175188  21.7315837  11.6126429  46.8098162  22.2920895  10.8938794
  47.0273808  22.0244398  12.3679588  41.4808813  22.5096189  12.7019882
  41.4384992  22.7357035  11.7728414  42.3971512  22.2759563  12.8505683
  44.9274447  12.9780256  19.6000511  45.2823834  13.2051729  20.4594977
  45.5746578  13.3098633  18.9777766  50.6841563  18.1675219  15.3161112
  51.1178070  18.0750508  16.1644166  51.3973144  18.1432719  14.6781128
  44.4169458  21.7677313  16.8494212  44.4706480  22.3368249  17.6171928
  43.5484240  21.9379198  16.4848249  51.5457113  18.2098920  17.8493997
  51.7393003  19.1144730  18.0953272  51.4457731  17.7506339  18.6832582
  43.1993424   8.0956810  20.3484324  42.5521339   8.7946760  20.2548801
  43.9694439   8.5292954  20.7160573  46.6072221  18.3605662  23.4234878
  46.4557728  18.1316214  22.5064961  46.5976901  19.3176264  23.4366223
  43.3757558  15.9337575  18.4081144  44.3049618  16.0848735  18.2350111
  42.9548588  16.0221596  17.5529791  42.1745890  19.9588240  16.1779682
  42.0356975  19.5907024  17.0505620  41.3860486  20.4735879  16.0063640
  43.7251105  19.3369842  13.5668520  43.3900937  19.2970612  14.4626169
  43.2255051  18.6714558  13.0938930  37.6995349  14.7437472  19.0921101
  37.5615147  14.0117711  19.6932640  38.6100272  14.6546372  18.8105288
  40.3277649  14.4557432  18.5804780  41.0377268  13.8150624  18.5391399
  40.2846958  14.7070326  19.5030961  48.3164428  21.3924785  21.5011360
  48.2576974  20.7084005  20.8341943  48.7183947  22.1343775  21.0491986
  39.0406583  11.4422649  20.4000420  38.5043940  10.9913388  21.0522016
  38.4523292  11.5768558  19.6570884  37.3355127  28.2086699  14.2945078
  37.5751725  28.8405223  14.9724097  36.4924323  27.8574739  14.5810438
  48.3181835  19.3564369  19.7325339  47.4308614  19.0190291  19.8551738
  48.8880386  18.6247400  19.9694105  41.8482989  24.0165821  16.6986582
  41.7753160  24.8220793  17.2105887  41.4060382  24.2157787  15.8734604
  52.7999176  14.7672586  14.4941901  52.7889052  15.6497302  14.1235834
  51.9316555  14.4144137  14.2996438  44.3081672  23.9152655  18.8544741
  45.0209645  24.5500120  18.7820643  43.8171701  24.0116521  18.0384743
  39.3593586  21.6647099  19.6750312  40.0603045  22.2983582  19.8279706
  38.8888701  22.0061830  18.9145951  47.1594872  14.2191706  17.5002862
  46.5066322  14.4667614  16.8455315  47.5375252  13.4055844  17.1665340
  44.1202046  24.2551399  11.6031033  44.3024440  23.4373055  12.0658785
  44.9435032  24.4719092  11.1655923  43.2082445  14.9611517  23.9868899
  42.5323082  14.8605647  24.6571275  44.0310079  14.8050731  24.4504897
  34.9561304  21.1983454  16.6081415  35.5414741  20.4527142  16.7409319
  34.7586142  21.5087410  17.4918078  41.9505228  26.2678445  18.2226515
  42.5023536  26.4310066  18.9875601  42.2911421  26.8582883  17.5506540
  36.4021993  10.6876727  22.4721434  37.0294032  10.3053804  23.0858959
  35.5449912  10.4690929  22.8377127  46.8016102  21.0939702  24.0775170
  47.3456006  21.7069660  23.5830125  46.2202947  21.6519281  24.5942183
  45.0873615  24.2160420  15.2090197  44.9624754  23.4150160  14.7001143
  45.7452706  24.7106614  14.7204167  47.1508523  22.0169440  16.8369748
  46.2038859  21.8974791  16.7648074  47.4991297  21.1291938  16.9196009
  44.1554957  21.8122157  13.0374100  44.0079919  20.8838864  13.2181670
  44.9808450  21.8342247  12.5531175  47.7589079  22.6350715  14.1238973
  48.6835626  22.4293577  13.9863424  47.5904382  22.3867116  15.0328314
  34.1527376  14.2920948  20.4394780  33.4109112  14.4403583  21.0259410
  33.8320121  14.5529214  19.5761529  42.0971039  23.8336926  20.2375170
  42.4058165  23.5886073  21.1097869  42.8946521  24.0383565  19.7494040
  42.1191651  25.9874836  12.4680546  41.6796641  25.4951215  13.1613403
  42.8699768  25.4447804  12.2272621  39.5665523  21.5312845  14.5402848
  38.9445533  20.8683550  14.2405076  40.2370390  21.5573977  13.8576496
  39.6390051  10.0094633  24.1335354  39.6878206  10.8856756  23.7513124
  40.1812565   9.4672026  23.5606997  50.1244896  20.5535756  23.4136491
  49.3340440  20.5359895  22.8740990  49.8878251  21.0924050  24.1685528
  50.2442771  17.4028223  20.7269220  50.2940776  17.2378230  21.6684742
  50.1356695  16.5355482  20.3367100  47.5346534  13.3859151  22.0428526
  48.4356397  13.2465616  21.7512524  47.6094508  13.5513606  22.9826704
  41.8689339  10.7626005  20.8881713  40.9992649  11.0559571  20.6164301
  42.1048820  11.3466450  21.6088976  51.7460968  19.8225164  20.9711241
  51.4545777  20.1855145  21.8074702  51.1333100  19.1092172  20.7924573
  52.9456651  17.3878044  13.4913811  53.7803542  17.8267848  13.6551372
  53.0815779  16.9116697  12.6722057  49.9948157  14.9457779  19.4391299
  50.4702278  15.1385425  18.6310150  49.0713722  15.0016965  19.1934683
  48.6949826  11.8223539  17.6719605  49.6467248  11.9221637  17.6931829
  48.5253276  11.0301807  18.1817689  51.1737903  15.0429659  16.7861904
  51.1414223  14.1045659  16.9721588  51.7838527  15.1213695  16.0527729
  51.3232392  11.8340702  16.8320188  50.8071440  11.0499159  16.6450116
  52.2072340  11.5059419  16.9966707  56.9914453  16.1045665  15.9267941
  57.7217842  15.8430954  16.4875644  56.3821399  15.3674387  15.9670009
  55.0729750  14.2453528  16.5242392  54.3462914  14.1109493  15.9158884
  54.6577037  14.5530357  17.3299110  42.8959927  17.9643458  24.2889765
  43.8162936  18.1422057  24.4829812  42.8609510  17.0199503  24.1369465
  40.7649865  11.4477698  26.3215295  40.6646591  12.3972055  26.2527387
  40.5471407  11.1195937  25.4491366  40.6281135  14.8774837  25.1380357
  40.1448216  15.6775197  25.3444246  40.7142074  14.8882782  24.1847801
  36.5554472  18.7679372  17.1748791  37.5097726  18.7363314  17.1078722
  36.3566996  18.3069995  17.9899017  37.1453854  17.3380488  19.7419589
  37.9646743  17.8324566  19.7654426  37.4190662  16.4212456  19.7137156
  54.9978618  13.7731581  12.6519245  54.4378176  13.8424770  13.4250807
  54.3922121  13.5972566  11.9318741  38.0673827  25.2068308  14.4037431
  37.9506211  26.1513741  14.3016122  37.2466273  24.9041870  14.7923231
  44.9242161  18.7399469  25.9403926  45.7933320  18.9140121  25.5790561
  44.4448912  19.5593886  25.8179656  39.0928341  25.8596570  17.6193360
  39.9955588  25.8920180  17.9359855  38.8665711  24.9297021  17.6339696
  40.8481943  24.6127557  14.2803438  39.8977574  24.6129418  14.1667811
  41.1514429  23.8660291  13.7639473  36.7386259   8.8186239  24.5386800
  37.6017721   8.4623043  24.7490124  36.1651670   8.4800133  25.2262204
  56.5834636  30.4488095  15.3449201  57.2213046  30.3294842  14.6412541
  56.4655479  31.3968939  15.4037153  53.3924343  30.4015523  15.2810726
  53.0542854  30.2856588  14.3931260  54.2614111  30.0006688  15.2611732
  49.2511158  32.2550999  11.2707616  48.6876024  32.1640936  10.5023904
  49.1363553  31.4350904  11.7510109  53.8744126  31.5550375  21.2396931
  53.8632766  31.1603173  20.3677435  54.0364765  30.8216447  21.8330703
  46.7975590  33.7502191  14.1091837  47.5896882  33.4093016  13.6938136
  47.0372240  33.8597166  15.0293990  54.8310717  35.9221967   6.5822081
  54.1798697  36.5076048   6.1956095  55.6255080  36.4528162   6.6417119
  48.7566344  33.0111104   6.9809216  49.5297220  32.4640091   6.8422092
  49.1091743  33.8755354   7.1923677  50.5951387  34.3387487  20.1876115
  50.3041253  35.2433117  20.0722781  51.2308371  34.3804014  20.9020185
  51.5207594  31.7164335  16.7777475  52.1171166  31.4920358  16.0634438
  51.5782565  30.9749081  17.3802923  56.1375905  28.1739549  12.4202409
  56.9238994  27.7558972  12.0692826  56.4014609  29.0785641  12.5884057
  56.3085982  33.6112399   7.1191066  55.6731815  33.6847026   7.8311970
  55.9783389  34.2005998   6.4410145  61.5384332  28.1114782  13.3235387
  62.2709504  27.5413999  13.5573217  60.7823688  27.7236382  13.7641893
  50.8128911  31.0731876   6.8152041  50.6965169  30.3976780   7.4833125
  50.9231171  30.5864250   5.9984194  53.1560452  30.5342024  10.5198730
  52.7918659  30.0072644  11.2311651  54.0127568  30.1440493  10.3465215
  59.0609752  21.8236356  17.7829996  58.7293077  22.6931767  17.5591211
  58.4655366  21.5072640  18.4624026  55.5541272  34.0248902  17.1825909
  55.2541995  34.9273941  17.0741716  55.2092331  33.7581085  18.0347062
  49.0053753  30.4762699  13.2162613  48.0804250  30.3438913  13.4240305
  49.2538167  31.2556918  13.7132556  58.9538416  26.5431442  14.8623346
  58.0455293  26.4746851  14.5682107  58.9026011  27.0203387  15.6905172
  52.7755160  28.0189581   6.5006745  52.6554785  28.4646631   7.3392225
  52.0807748  28.3674898   5.9420283  46.3662564  30.1195973  14.0506402
  46.4954946  30.3730451  14.9645814  45.6860016  30.7123681  13.7311057
  50.5362052  40.7893222  10.1496876  50.4586081  41.7401048  10.2285357
  49.9323695  40.4439095  10.8071803  53.0279281  27.9621088  22.8058243
  52.2512616  28.5215008  22.7961108  53.6669845  28.4477871  23.3273113
  60.8200062  24.7447881  16.6401220  60.1774442  25.0380414  15.9941015
  60.3154991  24.6300801  17.4454417  58.4740226  28.4911054   7.3287079
  59.3858082  28.7238441   7.1534777  57.9649873  29.0748098   6.7662158
  51.2825654  30.7706541  22.3676210  52.0240338  31.3091585  22.0911034
  50.5762639  31.3972830  22.5247762  56.7580993  32.9135682  20.9648372
  57.1664349  32.4718092  20.2203004  56.0358255  32.3388309  21.2182565
  53.1112063  27.8508288  18.3381929  53.9573259  28.2747702  18.4816578
  53.0510701  27.1941913  19.0320492  57.0809808  33.4736872  14.7200661
  56.4518671  33.6382586  14.0176729  56.6935470  33.8878482  15.4911625
  60.9599040  34.4091310  12.0745024  60.2750078  34.7890212  11.5242058
  61.0442889  35.0186637  12.8076972  56.2611509  25.5112657  19.9963102
  56.0172441  26.2654717  19.4597378  56.5371439  25.8898004  20.8310349
  58.2149972  32.0551269  18.6740368  58.4266867  32.6983029  17.9974749
  58.1679720  31.2213586  18.2062298  55.8176201  24.6669090  15.5776940
  54.9560680  24.9650343  15.8693678  55.8438635  24.8839489  14.6457973
  52.6337770  33.2111280  11.9850746  53.0976115  33.4898983  11.1955368
  52.3694568  32.3094725  11.8023836  49.5261851  32.7582762  14.9230509
  50.0963208  33.1870030  14.2847994  50.1169963  32.4765347  15.6214695
  51.5706656  29.3334433   8.7940311  52.2730699  29.7855476   9.2614237
  51.2387285  28.6918252   9.4220204  50.0187018  27.9246189  23.1691520
  49.3885678  28.6062470  23.4026917  49.9123105  27.8129271  22.2244659
  45.3131990  27.5917985  14.0957444  44.5231044  27.8475514  13.6197555
  45.8043237  28.4066323  14.2009485  59.3295800  34.9323225  16.8462725
  60.1513243  34.5303412  16.5645407  59.3258202  34.8291459  17.7978841
  47.2646735  27.9562565  11.0540921  46.4677899  28.0681259  11.5724417
  47.0372328  28.2949217  10.1881812  53.0952403  34.4807268  19.0023436
  53.1596835  34.9427675  19.8381608  52.3863327  33.8504633  19.1305746
  43.5969693  27.8448476  16.5272435  43.8477731  28.7295486  16.7930011
  44.1329241  27.6653077  15.7547527  67.4201793  31.2761973  13.1947697
  66.6665501  30.7069371  13.0391701  67.5549334  31.2424638  14.1418331
  52.8100421  36.1475375   8.8702416  52.6746095  36.9926911   9.2987264
  53.3510233  36.3494653   8.1068350  49.2967760  22.2266955  25.5316771
  48.9034706  21.6733154  26.2064416  50.1133901  22.5377534  25.9223289
  46.2629818  33.6650813   9.4430341  46.7754339  34.4594064   9.5935906
  46.9152531  32.9677104   9.3763943  48.0724703  36.7816570  11.5253094
  48.2491331  37.7034534  11.3374078  48.8681536  36.4674989  11.9547474
  52.2135721  23.6424834  23.1237028  52.9545435  24.2431987  23.0441490
  52.4453644  22.9002472  22.5655070  47.3577059  28.8281202  21.4015258
  47.2430574  27.9266459  21.7022357  46.5021577  29.0744898  21.0500074
  54.4368897  36.7698942  23.0002758  53.9932751  35.9835320  22.6823663
  55.0986111  36.9578092  22.3346649  49.1956018  38.2994744  17.5263437
  49.7463443  38.1711807  16.7540431  48.3567494  38.5989633  17.1758330
  56.5350135  37.0501742  21.0284159  56.5168610  37.8710623  20.5364429
  57.4570055  36.9255817  21.2534301  52.9923189  34.5645871  21.8707668
  53.5251526  33.8034160  21.6406976  52.4637270  34.2719523  22.6131822
  56.1592884  19.6705937  17.4001310  55.8157154  20.5607579  17.3240420
  56.5271847  19.4807595  16.5370895  44.2278735  31.9939468  10.2189912
  45.0653957  32.4036476  10.0023619  44.4057003  31.0538910  10.1890106
  56.1243167  29.6614548   5.9073745  55.6089790  30.4319153   6.1462132
  55.8520475  28.9879685   6.5306806  53.7090278  24.5064249  10.9658983
  52.8531874  24.1171100  10.7864622  54.1217230  24.5856210  10.1058769
  55.2389425  22.0410592  15.3650543  54.7354220  22.0040728  14.5518348
  55.5320031  22.9503335  15.4247200  51.4832310  22.1249322  14.3716725
  52.3485307  21.9292131  14.0122614  51.5509819  21.8959674  15.2986081
  61.0977441  32.4146903   7.8426918  60.3206884  32.0758063   7.3982080
  61.7768922  32.4199526   7.1681883  55.9129470  27.5341641   7.7333526
  55.6079606  27.8487790   8.5843669  56.8659912  27.6123060   7.7760859
  54.3575902  33.6931864   9.3826480  53.8297264  32.9584623   9.0699717
  53.8563405  34.4706540   9.1366448  59.3368748  31.8880884  14.4993526
  58.6792422  32.5780146  14.5873655  60.1409147  32.2777316  14.8427513
  49.0894630  24.3551530  11.7433091  49.6638381  24.1326712  11.0106284
  49.6765612  24.4240225  12.4961693  58.1474207  30.2425257  12.5497468
  58.6606089  30.8755249  13.0519178  58.7975431  29.6426453  12.1840828
  51.3917297  21.2292779  10.4708161  50.7381710  20.9141796   9.8464776
  51.3497771  20.6068519  11.1967984  52.5028502  31.5112074   2.3861453
  51.5955564  31.2801328   2.5852602  52.9999534  30.7149693   2.5735434
  55.4096581  40.2209581   5.3058139  54.7358280  40.5241278   5.9143097
  55.7962403  41.0238662   4.9563596  54.6255038  27.7174713  14.7955808
  53.7077599  27.9389660  14.6377497  55.0415181  27.7921023  13.9367516
  55.4090085  29.1166128   9.9258489  56.1561904  29.6287525   9.6165611
  55.6781675  28.7950181  10.7862882  53.6816736  31.6124669   6.9085443
  52.7727955  31.3283702   7.0057913  53.7111819  32.0323748   6.0488750
  58.9136003  35.2231258  10.6776611  58.4598330  34.3822168  10.7341801
  58.2829970  35.8592657  11.0151391  57.8568923  26.1523244  11.9077278
  57.1191679  25.6400631  12.2387521  58.1095696  25.7123626  11.0960555
  57.3568942  37.0607755  11.6126429  57.6491917  37.6212812  10.8938794
  57.8667563  37.3536316  12.3679588  57.9580550  18.9299496  12.5019047
  58.2639427  18.0696860  12.2144962  58.6833155  19.5217117  12.3018041
  44.2504906  29.3330183  10.8900645  44.0529306  28.7399544  10.1651712
  43.6951570  29.0282393  11.6076584  52.2301630  29.2253290  13.0095238
  52.2850239  28.2727126  12.9337715  51.4192832  29.3812729  13.4936537
  53.3792823  33.1533413   4.2473522  52.9412253  32.4369272   3.7879159
  54.1203264  33.3809527   3.6858613  50.1693990  27.8430349  10.7685617
  49.3561855  28.1424520  11.1750809  50.6652984  27.4486038  11.4860099
  52.3202567  37.8388106  12.7019882  52.2778746  38.0648953  11.7728414
  53.2365266  37.6051481  12.8505683  55.7668201  28.3072174  19.6000511
  56.1217589  28.5343647  20.4594977  56.4140332  28.6390551  18.9777766
  61.4965938  31.4290610  10.3049840  61.3583837  31.6192206   9.3771029
  61.1402157  32.1909992  10.7617891  49.6608064  25.4148705  16.3846852
  50.3007444  25.2737464  15.6869815  48.8285595  25.1283218  16.0085454
  61.5235318  33.4967137  15.3161112  61.9571824  33.4042426  16.1644166
  62.2366898  33.4724637  14.6781128  50.4368368  34.7151135  12.4981845
  51.2308967  34.2201455  12.2964420  49.7260061  34.1868998  12.1349550
  55.2563213  37.0969231  16.8494212  55.3100235  37.6660167  17.6171928
  54.3877994  37.2671116  16.4848249  46.7451132  28.8594217   8.5741597
  45.8148720  28.7978672   8.7911559  46.8408604  28.3370170   7.7778239
  46.6636681  25.3849030  11.1619839  46.9243498  26.2994363  11.0528999
  47.4853853  24.9173472  11.3116452  48.1361606  26.7986787  18.3318664
  48.8084659  26.5904149  17.6831312  47.3091393  26.6008873  17.8923896
  62.3850867  33.5390837  17.8493997  62.5786757  34.4436648  18.0953272
  62.2851485  33.0798256  18.6832582  54.0387178  23.4248728  20.3484324
  53.3915093  24.1238678  20.2548801  54.8088193  23.8584872  20.7160573
  57.4465976  33.6897580  23.4234878  57.2951482  33.4608132  22.5064961
  57.4370655  34.6468181  23.4366223  54.2151312  31.2629493  18.4081144
  55.1443372  31.4140652  18.2350111  53.7942342  31.3513514  17.5529791
  53.0139644  35.2880157  16.1779682  52.8750730  34.9198942  17.0505620
  52.2254240  35.8027797  16.0063640  53.6087796  40.3889254   7.5205218
  53.7839552  39.9177297   8.3350841  52.9220584  41.0155020   7.7486479
  54.5644859  34.6661760  13.5668520  54.2294692  34.6262530  14.4626169
  54.0648805  34.0006476  13.0938930  48.5389103  30.0729390  19.0921101
  48.4008901  29.3409629  19.6932640  49.4494027  29.9838290  18.8105288
  57.5004051  32.0117794   3.8405579  56.8833222  31.2864622   3.7438632
  57.0320539  32.7727155   3.4972653  51.1671404  29.7849349  18.5804780
  51.8771022  29.1442541  18.5391399  51.1240712  30.0362244  19.5030961
  59.1558183  36.7216703  21.5011360  59.0970729  36.0375923  20.8341943
  59.5577701  37.4635693  21.0491986  49.8800338  26.7714567  20.4000420
  49.3437695  26.3205306  21.0522016  49.2917046  26.9060476  19.6570884
  48.1748881  43.5378616  14.2945078  48.4145480  44.1697141  14.9724097
  47.3318078  43.1866656  14.5810438  59.1575590  34.6856287  19.7325339
  58.2702369  34.3482208  19.8551738  59.7274141  33.9539318  19.9694105
  40.8104737  31.0180378  13.0568391  41.4975777  30.7042108  12.4689406
  40.6552866  31.9221743  12.7835642  45.6139459  25.9070575  17.4853414
  45.5297648  25.2996244  16.7503824  44.7922166  26.3979593  17.4862911
  52.6876743  39.3457739  16.6986582  52.6146915  40.1512710  17.2105887
  52.2454136  39.5449705  15.8734604  52.4766523  38.5829509  10.2089404
  51.6934045  39.1251189  10.3027628  53.1759268  39.1003489  10.6083645
  55.7863173  24.3924138  12.8523609  56.2831873  23.6394101  12.5324680
  55.0150155  24.4288455  12.2866819  63.6392930  30.0964504  14.4941901
  63.6282807  30.9789219  14.1235834  62.7710310  29.7436055  14.2996438
  55.1475427  39.2444573  18.8544741  55.8603399  39.8792038  18.7820643
  54.6565455  39.3408439  18.0384743  56.8692954  33.1495826  10.4262033
  55.9349232  33.2697288  10.2566737  57.0469622  32.2468292  10.1622043
  52.3698142  26.5341521  12.5795294  51.9995929  25.9812562  13.2676200
  52.8657234  25.9299655  12.0270294  60.2565505  28.9913145  10.9612067
  60.7225957  29.8241136  10.8872370  60.7073006  28.5258126  11.6657325
  50.1987340  36.9939016  19.6750312  50.8996800  37.6275499  19.8279706
  49.7282455  37.3353748  18.9145951  58.3241736  35.3356966   7.9598219
  58.6001580  35.2213561   8.8692093  57.4546235  34.9374451   7.9210392
  58.2282168  21.3593732  15.0002968  57.3145248  21.5897959  15.1685175
  58.6575269  21.4432176  15.8517001  57.9988626  29.5483624  17.5002862
  57.3460077  29.7959531  16.8455315  58.3769006  28.7347762  17.1665340
  54.9595800  39.5843317  11.6031033  55.1418195  38.7664973  12.0658785
  55.7828786  39.8011009  11.1655923  55.2937966  38.5111502   8.8646081
  55.8225732  38.0003957   8.2516243  55.5566185  38.1954032   9.7291614
  54.0476199  30.2903435  23.9868899  53.3716836  30.1897564  24.6571275
  54.8703833  30.1342649  24.4504897  45.7955058  36.5275371  16.6081415
  46.3808495  35.7819059  16.7409319  45.5979897  36.8379328  17.4918078
  48.6493714  39.5626619  11.6243857  47.9804089  40.0472746  11.1407897
  48.5106583  39.8095839  12.5387235  40.3872713  29.0980972  15.3285858
  40.4256813  28.5644562  16.1222976  39.8813006  28.5716177  14.7096835
  52.7898982  41.5970362  18.2226515  53.3417290  41.7601984  18.9875601
  53.1305176  42.1874800  17.5506540  47.7663475  23.9445512  18.8248400
  47.8304802  24.8060343  18.4125798  47.7030596  23.3319514  18.0920759
  47.2415748  26.0168645  22.4721434  47.8687787  25.6345722  23.0858959
  46.3843667  25.7982847  22.8377127  57.6409857  36.4231620  24.0775170
  58.1849761  37.0361578  23.5830125  57.0596701  36.9811198  24.5942183
  44.0181291  27.8245074   8.4039789  44.3134732  26.9155752   8.3506843
  43.1169326  27.8032813   8.0820791  55.9267369  39.5452338  15.2090197
  55.8018509  38.7442078  14.7001143  56.5846461  40.0398531  14.7204167
  47.5475538  25.9001070  14.3867338  46.8262123  26.5137038  14.2474811
  48.3368793  26.4358835  14.3083984  57.9902278  37.3461358  16.8369748
  57.0432613  37.2266709  16.7648074  58.3385051  36.4583856  16.9196009
  50.3501851  23.2355497  20.6607989  50.8736253  23.4817793  21.4234299
  50.1314185  24.0675532  20.2411127  54.9948711  37.1414074  13.0374100
  54.8473674  36.2130782  13.2181670  55.8202205  37.1634165  12.5531175
  48.8610955  25.7932141   8.8954592  49.2007028  26.3218063   8.1733200
  49.3083076  26.1312547   9.6713158  58.5982833  37.9642633  14.1238973
  59.5229380  37.7585494  13.9863424  58.4298136  37.7159034  15.0328314
  51.5554396  24.1769192  18.3457660  51.2151217  23.3777005  18.7478340
  50.8493403  24.4770903  17.7734493  52.2070868  21.2618504  16.7984983
  53.0296937  20.7878983  16.6763873  52.4508932  22.0408988  17.2983669
  50.8479103  24.2906763   7.0947885  51.5687465  24.6688016   6.5911602
  50.2244407  25.0095640   7.1982863  54.9910225  24.9951912   8.0306217
  55.2073840  25.8776550   7.7295045  54.5104293  24.6038125   7.3011859
  49.7309447  27.9537625  14.6076962  49.5854028  28.2677928  15.5001243
  49.2534651  28.5722525  14.0547860  51.5905830  24.9440173  14.6557851
  51.5767399  24.0481266  14.3190149  52.3078258  24.9510837  15.2896137
  53.4431960  25.3777513  16.7010979  53.1849738  26.2994584  16.6995309
  52.9117001  24.9807948  17.3911443  58.3878149  38.4828300   9.4801064
  58.5615027  37.9174723   8.7274916  58.8807040  39.2829195   9.2980554
  44.2055109  30.4942969  17.5464623  43.6608577  31.2702777  17.6784897
  45.0834459  30.8413774  17.3883744  50.9942726  23.8254553   9.9245421
  51.1158637  22.8971200  10.1236309  50.7044768  23.8393239   9.0123737
  53.8633916  21.5109464  13.0612141  53.8855613  21.5748797  12.1064121
  54.2801975  20.6713972  13.2552647  64.2417540  31.2464723  11.0991364
  64.6848686  30.4972049  10.7010487  63.3644051  31.2374860  10.7165096
  59.3753322  37.7995065   6.5797962  60.0704226  38.4201757   6.7985277
  59.7176472  36.9490416   6.8550340  44.9921131  29.6212866  20.4394780
  44.2502867  29.7695501  21.0259410  44.6713875  29.8821131  19.5761529
  61.2744745  35.2494770   8.1085293  61.7996069  35.5882043   7.3834613
  61.1867097  34.3141786   7.9248428  52.9364794  39.1628844  20.2375170
  53.2451920  38.9177991  21.1097869  53.7340276  39.3675482  19.7494040
  52.9585406  41.3166754  12.4680546  52.5190396  40.8243132  13.1613403
  53.7093523  40.7739721  12.2272621  45.4377745  37.5078294  12.4705174
  46.2635764  37.2082066  12.0903818  45.0871797  36.7385917  12.9194963
  50.4059278  36.8604763  14.5402848  49.7839287  36.1975468  14.2405076
  51.0764145  36.8865895  13.8576496  43.6386350  35.4264621  13.4294108
  42.8018258  34.9986795  13.2478109  43.6109995  35.6197064  14.3664899
  50.4783805  25.3386551  24.1335354  50.5271961  26.2148673  23.7513124
  51.0206319  24.7963944  23.5606997  60.9638651  35.8827674  23.4136491
  60.1734195  35.8651813  22.8740990  60.7272005  36.4215968  24.1685528
  61.0836526  32.7320140  20.7269220  61.1334531  32.5670148  21.6684742
  60.9750449  31.8647399  20.3367100  49.9672785  35.4108686   8.0161308
  50.1160905  36.0944150   7.3627981  50.7739228  35.3913776   8.5310764
  58.3740288  28.7151068  22.0428526  59.2750151  28.5757533  21.7512524
  58.4488263  28.8805523  22.9826704  52.7083094  26.0917923  20.8881713
  51.8386403  26.3851489  20.6164301  52.9442574  26.6758368  21.6088976
  62.5854723  35.1517082  20.9711241  62.2939531  35.5147062  21.8074702
  61.9726854  34.4384090  20.7924573  63.7850405  32.7169962  13.4913811
  64.6197296  33.1559766  13.6551372  63.9209534  32.2408615  12.6722057
  60.8341911  30.2749696  19.4391299  61.3096033  30.4677343  18.6310150
  59.9107476  30.3308882  19.1934683  47.7225418  31.4373864   9.0222377
  47.4771460  30.5336194   9.2202587  47.8921332  31.4391014   8.0801855
  55.4122128  22.3097540  18.4047133  55.9304071  23.0458567  18.0793622
  55.0577260  22.6161533  19.2393892  55.6634722  18.7297823  13.9248030
  55.9436475  18.0621012  14.5508456  56.4485329  18.9226918  13.4122693
  53.4668190  37.9056816   5.4873056  52.8942157  38.5247004   5.0343528
  54.0400984  38.4556178   6.0212978  59.5343580  27.1515457  17.6719605
  60.4861003  27.2513554  17.6931829  59.3647030  26.3593725  18.1817689
  57.5557959  24.2371040  17.8579006  56.9607892  24.5176052  17.1625494
  57.2707656  24.7264941  18.6295747  56.6865450  38.1893967   6.6181638
  57.6196123  38.1239528   6.8214514  56.5988663  39.0250233   6.1596171
  59.3153467  37.5059837   3.5785586  59.2367098  37.1719701   4.4721344
  60.1363133  37.9981605   3.5777058  62.0131658  30.3721576  16.7861904
  61.9807978  29.4337577  16.9721588  62.6232281  30.4505613  16.0527729
  53.8514989  29.2417629   2.8289108  54.7974093  29.1123837   2.8977526
  53.4729234  28.5032291   3.3058537  62.1626146  27.1632620  16.8320188
  61.6465195  26.3791076  16.6450116  63.0466095  26.8351336  16.9966707
  59.8236873  20.9073635  12.7916000  59.6261694  20.5988723  13.6759332
  60.4336579  21.6335274  12.9213930  67.8308208  31.4337583  15.9267941
  68.5611596  31.1722871  16.4875644  67.2215153  30.6966305  15.9670009
  65.9123505  29.5745446  16.5242392  65.1856668  29.4401411  15.9158884
  65.4970792  29.8822274  17.3299110  53.7353681  33.2935375  24.2889765
  54.6556691  33.4713974  24.4829812  53.7003264  32.3491421  24.1369465
  42.9535846  28.4873969  13.2143040  42.6338631  27.6339277  12.9217414
  42.4069274  28.7022547  13.9701007  46.7315754  31.2036410  16.9312547
  46.9501764  32.1353518  16.9500580  47.1441528  30.8444384  17.7167350
  53.6519972  21.7104495   8.9188235  52.8420700  21.3651580   9.2943481
  54.3404388  21.4012039   9.5075846  55.5810520  20.7882542  10.5412532
  56.1341558  21.2077996  11.2002555  55.8180606  19.8618290  10.5835488
  51.6043619  26.7769616  26.3215295  51.5040346  27.7263973  26.2527387
  51.3865161  26.4487855  25.4491366  42.8224106  32.1076880  15.1836162
  42.1287578  31.6930833  14.6706116  43.5697097  32.1497417  14.5869580
  58.9589327  22.8983067  10.0491196  58.3787996  23.5567871   9.6669248
  58.6925260  22.0760412   9.6378613  57.4092893  22.2988125  12.2512516
  57.9092672  22.4104660  11.4426835  58.0528501  21.9949178  12.8913325
  51.4674889  30.2066755  25.1380357  50.9841971  31.0067115  25.3444246
  51.5535828  30.2174699  24.1847801  44.7360849  32.0395134  13.0602176
  44.7131537  32.1382822  12.1084060  45.0461485  32.8860285  13.3819343
  47.3948227  34.0971289  17.1748791  48.3491480  34.0655232  17.1078722
  47.1960750  33.6361913  17.9899017  47.9847609  32.6672405  19.7419589
  48.8040498  33.1616484  19.7654426  48.2584416  31.7504373  19.7137156
  57.7414205  25.0583158   9.1047544  56.8540060  25.3432808   8.8867739
  58.1568194  24.8976921   8.2574821  61.0928741  25.0829679  12.8201883
  61.8689131  25.5726131  13.0926500  60.3676875  25.5087733  13.2773753
  63.5301300  25.7957298  13.8775824  64.1245791  25.5553034  13.1669132
  63.6027883  25.0764428  14.5049360  45.7498455  39.6390909  14.1918989
  45.6152923  38.8791310  13.6256987  45.3330518  40.3631809  13.7247778
  56.8857418  34.8227832   3.1995564  57.5893269  35.0277835   3.8153220
  56.1620067  35.3904594   3.4644648  57.7155229  30.5737694   9.3197834
  57.6590430  31.0306245   8.4805467  58.2683571  29.8128378   9.1420677
  61.5260035  26.3627425  10.1447954  61.2696969  25.9624061  10.9756161
  60.9012903  27.0771219  10.0198093  65.8372372  29.1023499  12.6519245
  65.2771930  29.1716688  13.4250807  65.2315876  28.9264483  11.9318741
  48.9067581  40.5360226  14.4037431  48.7899965  41.4805658  14.3016122
  48.0860028  40.2333787  14.7923231  58.7944116  35.2610362   5.2494024
  59.6289720  34.8291560   5.0671499  58.6328459  35.0892375   6.1770919
  58.4490008  31.7642475   6.6150363  58.3938812  31.5986746   5.6738808
  57.8236063  32.4718508   6.7712553  43.2382523  27.0010539  20.4411786
  43.8841387  26.4909493  20.9299011  43.0299674  27.7379221  21.0155211
  55.7635915  34.0691387  25.9403926  56.6327075  34.2432039  25.5790561
  55.2842667  34.8885804  25.8179656  49.9322095  41.1888488  17.6193360
  50.8349342  41.2212098  17.9359855  49.7059465  40.2588939  17.6339696
  51.6875697  39.9419474  14.2803438  50.7371328  39.9421336  14.1667811
  51.9908184  39.1952209  13.7639473  55.5738253  17.8593360  10.4481619
  54.8070649  17.3051847  10.5938301  55.9848958  17.9315229  11.3095770
  47.5780014  24.1478156  24.5386800  48.4411476  23.7914961  24.7490124
  47.0045425  23.8092051  25.2262204  67.4228391  45.7780013  15.3449201
  68.0606801  45.6586760  14.6412541  67.3049234  46.7260857  15.4037153
  64.2318097  45.7307441  15.2810726  63.8936609  45.6148505  14.3931260
  65.1007865  45.3298606  15.2611732  60.0904913  47.5842917  11.2707616
  59.5269778  47.4932854  10.5023904  59.9757308  46.7642822  11.7510109
  64.7137880  46.8842292  21.2396931  64.7026521  46.4895091  20.3677435
  64.8758520  46.1508365  21.8330703  57.6369345  49.0794109  14.1091837
  58.4290637  48.7384933  13.6938136  57.8765995  49.1889084  15.0293990
  65.6704472  51.2513885   6.5822081  65.0192451  51.8367965   6.1956095
  66.4648834  51.7820080   6.6417119  59.5960099  48.3403022   6.9809216
  60.3690975  47.7932009   6.8422092  59.9485498  49.2047271   7.1923677
  61.4345141  49.6679404  20.1876115  61.1435007  50.5725035  20.0722781
  62.0702126  49.7095932  20.9020185  62.3601348  47.0456253  16.7777475
  62.9564920  46.8212275  16.0634438  62.4176320  46.3040998  17.3802923
  61.9326377  44.4995688   4.6127666  62.1851897  43.9777209   3.8511129
  60.9950936  44.3361834   4.7154349  66.9769659  43.5031466  12.4202409
  67.7632749  43.0850890  12.0692826  67.2408364  44.4077559  12.5884057
  67.1479737  48.9404317   7.1191066  66.5125570  49.0138943   7.8311970
  66.8177143  49.5297916   6.4410145  72.3778087  43.4406700  13.3235387
  73.1103258  42.8705916  13.5573217  71.6217442  43.0528300  13.7641893
  61.6522665  46.4023794   6.8152041  61.5358923  45.7268697   7.4833125
  61.7624925  45.9156168   5.9984194  63.9954206  45.8633941  10.5198730
  63.6312413  45.3364562  11.2311651  64.8521322  45.4732410  10.3465215
  69.9003507  37.1528274  17.7829996  69.5686832  38.0223685  17.5591211
  69.3049120  36.8364558  18.4624026  63.6359693  40.8923841   5.5160078
  63.8034096  41.7604077   5.8830549  63.4456862  41.0551123   4.5921368
  66.3935026  49.3540820  17.1825909  66.0935749  50.2565859  17.0741716
  66.0486086  49.0873003  18.0347062  59.8447508  45.8054617  13.2162613
  58.9198004  45.6730831  13.4240305  60.0931921  46.5848836  13.7132556
  69.7932170  41.8723360  14.8623346  68.8849048  41.8038768  14.5682107
  69.7419766  42.3495305  15.6905172  63.6148914  43.3481498   6.5006745
  63.4948539  43.7938549   7.3392225  62.9201502  43.6966816   5.9420283
  57.2056319  45.4487890  14.0506402  57.3348700  45.7022369  14.9645814
  56.5253770  46.0415598  13.7311057  61.3755806  56.1185140  10.1496876
  61.2979836  57.0692965  10.2285357  60.7717450  55.7731013  10.8071803
  63.8673036  43.2913006  22.8058243  63.0906370  43.8506926  22.7961108
  64.5063599  43.7769789  23.3273113  71.6593817  40.0739798  16.6401220
  71.0168197  40.3672332  15.9941015  71.1548745  39.9592719  17.4454417
  69.3133980  43.8202972   7.3287079  70.2251836  44.0530358   7.1534777
  68.8043627  44.4040016   6.7662158  62.1219408  46.0998459  22.3676210
  62.8634093  46.6383503  22.0911034  61.4156394  46.7264748  22.5247762
  67.5974748  48.2427599  20.9648372  68.0058104  47.8010010  20.2203004
  66.8752009  47.6680227  21.2182565  63.9505818  43.1800206  18.3381929
  64.7967013  43.6039620  18.4816578  63.8904456  42.5233830  19.0320492
  67.9203563  48.8028790  14.7200661  67.2912425  48.9674504  14.0176729
  67.5329225  49.2170400  15.4911625  71.7992794  49.7383228  12.0745024
  71.1143833  50.1182129  11.5242058  71.8836644  50.3478555  12.8076972
  67.1005263  40.8404575  19.9963102  66.8566195  41.5946635  19.4597378
  67.3765194  41.2189922  20.8310349  69.0543726  47.3843187  18.6740368
  69.2660621  48.0274947  17.9974749  69.0073474  46.5505503  18.2062298
  66.6569955  39.9961008  15.5776940  65.7954434  40.2942261  15.8693678
  66.6832390  40.2131406  14.6457973  63.4731524  48.5403198  11.9850746
  63.9369870  48.8190901  11.1955368  63.2088323  47.6386643  11.8023836
  60.3655606  48.0874680  14.9230509  60.9356963  48.5161948  14.2847994
  60.9563717  47.8057264  15.6214695  62.4100411  44.6626350   8.7940311
  63.1124454  45.1147394   9.2614237  62.0781039  44.0210169   9.4220204
  60.8580772  43.2538107  23.1691520  60.2279433  43.9354388  23.4026917
  60.7516860  43.1421189  22.2244659  56.1525744  42.9209903  14.0957444
  55.3624798  43.1767432  13.6197555  56.6436992  43.7358241  14.2009485
  70.1689554  50.2615142  16.8462725  70.9906998  49.8595330  16.5645407
  70.1651957  50.1583376  17.7978841  58.1040490  43.2854482  11.0540921
  57.3071653  43.3973177  11.5724417  57.8766082  43.6241135  10.1881812
  63.9346157  49.8099186  19.0023436  63.9990590  50.2719593  19.8381608
  63.2257081  49.1796551  19.1305746  54.4363447  43.1740394  16.5272435
  54.6871486  44.0587403  16.7930011  54.9722996  42.9944995  15.7547527
  78.2595547  46.6053891  13.1947697  77.5059255  46.0361289  13.0391701
  78.3943088  46.5716555  14.1418331  63.6494175  51.4767293   8.8702416
  63.5139850  52.3218829   9.2987264  64.1903988  51.6786571   8.1068350
  60.1361515  37.5558873  25.5316771  59.7428460  37.0025071  26.2064416
  60.9527655  37.8669451  25.9223289  57.1023573  48.9942731   9.4430341
  57.6148093  49.7885981   9.5935906  57.7546285  48.2969022   9.3763943
  58.9118457  52.1108487  11.5253094  59.0885086  53.0326452  11.3374078
  59.7075291  51.7966907  11.9547474  63.0529476  38.9716752  23.1237028
  63.7939189  39.5723905  23.0441490  63.2847399  38.2294390  22.5655070
  58.1970814  44.1573119  21.4015258  58.0824329  43.2558377  21.7022357
  57.3415332  44.4036816  21.0500074  65.2762652  52.0990860  23.0002758
  64.8326506  51.3127238  22.6823663  65.9379865  52.2870010  22.3346649
  60.0349773  53.6286661  17.5263437  60.5857198  53.5003725  16.7540431
  59.1961249  53.9281550  17.1758330  67.3743890  52.3793660  21.0284159
  67.3562365  53.2002541  20.5364429  68.2963810  52.2547735  21.2534301
  63.8316944  49.8937789  21.8707668  64.3645281  49.1326077  21.6406976
  63.3031025  49.6011441  22.6131822  66.9986639  34.9997855  17.4001310
  66.6550908  35.8899497  17.3240420  67.3665601  34.8099513  16.5370895
  55.0672489  47.3231385  10.2189912  55.9047711  47.7328394  10.0023619
  55.2450757  46.3830828  10.1890106  66.9636921  44.9906466   5.9073745
  66.4483545  45.7611071   6.1462132  66.6914230  44.3171602   6.5306806
  64.5484032  39.8356167  10.9658983  63.6925629  39.4463017  10.7864622
  64.9610984  39.9148128  10.1058769  66.0783179  37.3702510  15.3650543
  65.5747975  37.3332645  14.5518348  66.3713786  38.2795253  15.4247200
  62.3226065  37.4541240  14.3716725  63.1879062  37.2584049  14.0122614
  62.3903574  37.2251592  15.2986081  71.9371196  47.7438821   7.8426918
  71.1600638  47.4049980   7.3982080  72.6162677  47.7491444   7.1681883
  66.7523225  42.8633558   7.7333526  66.4473360  43.1779707   8.5843669
  67.7053667  42.9414978   7.7760859  65.1969656  49.0223781   9.3826480
  64.6691018  48.2876541   9.0699717  64.6957159  49.7998458   9.1366448
  70.1762502  47.2172802  14.4993526  69.5186177  47.9072063  14.5873655
  70.9802902  47.6069234  14.8427513  59.9288384  39.6843448  11.7433091
  60.5032136  39.4618629  11.0106284  60.5159366  39.7532142  12.4961693
  68.9867961  45.5717175  12.5497468  69.4999843  46.2047167  13.0519178
  69.6369185  44.9718370  12.1840828  60.2557971  41.7147909   5.7628977
  59.4195283  42.0522595   6.0838251  60.1162741  41.5796889   4.8256114
  62.2311052  36.5584697  10.4708161  61.5775464  36.2433714   9.8464776
  62.1891526  35.9360437  11.1967984  63.3422257  46.8403992   2.3861453
  62.4349318  46.6093245   2.5852602  63.8393289  46.0441611   2.5735434
  66.2490335  55.5501499   5.3058139  65.5752034  55.8533196   5.9143097
  66.6356157  56.3530579   4.9563596  65.4648792  43.0466630  14.7955808
  64.5471353  43.2681577  14.6377497  65.8808936  43.1212941  13.9367516
  66.2483840  44.4458046   9.9258489  66.9955659  44.9579443   9.6165611
  66.5175429  44.1242099  10.7862882  64.5210490  46.9416587   6.9085443
  63.6121709  46.6575619   7.0057913  64.5505574  47.3615665   6.0488750
  69.7529757  50.5523176  10.6776611  69.2992085  49.7114086  10.7341801
  69.1223724  51.1884574  11.0151391  68.6962677  41.4815162  11.9077278
  67.9585434  40.9692548  12.2387521  68.9489451  41.0415544  11.0960555
  68.1962697  52.3899673  11.6126429  68.4885671  52.9504730  10.8938794
  68.7061317  52.6828234  12.3679588  68.7974304  34.2591414  12.5019047
  69.1033181  33.3988778  12.2144962  69.5226909  34.8509034  12.3018041
  55.0898660  44.6622101  10.8900645  54.8923060  44.0691461  10.1651712
  54.5345324  44.3574311  11.6076584  63.0695384  44.5545207  13.0095238
  63.1243994  43.6019044  12.9337715  62.2586586  44.7104646  13.4936537
  64.2186578  48.4825330   4.2473522  63.7806008  47.7661189   3.7879159
  64.9597019  48.7101445   3.6858613  61.0087744  43.1722267  10.7685617
  60.1955610  43.4716438  11.1750809  61.5046738  42.7777956  11.4860099
  63.1596322  53.1680024  12.7019882  63.1172501  53.3940870  11.7728414
  64.0759021  52.9343398  12.8505683  66.6061956  43.6364091  19.6000511
  66.9611343  43.8635565  20.4594977  67.2534087  43.9682468  18.9777766
  72.3359693  46.7582527  10.3049840  72.1977591  46.9484123   9.3771029
  71.9795911  47.5201910  10.7617891  60.5001819  40.7440622  16.3846852
  61.1401198  40.6029382  15.6869815  59.6679349  40.4575136  16.0085454
  72.3629072  48.8259054  15.3161112  72.7965579  48.7334343  16.1644166
  73.0760653  48.8016555  14.6781128  61.2762123  50.0443053  12.4981845
  62.0702721  49.5493373  12.2964420  60.5653815  49.5160916  12.1349550
  66.0956967  52.4261148  16.8494212  66.1493989  52.9952085  17.6171928
  65.2271749  52.5963033  16.4848249  57.5844886  44.1886135   8.5741597
  56.6542474  44.1270590   8.7911559  57.6802358  43.6662087   7.7778239
  57.5030435  40.7140947  11.1619839  57.7637252  41.6286281  11.0528999
  58.3247608  40.2465390  11.3116452  58.9755361  42.1278705  18.3318664
  59.6478414  41.9196067  17.6831312  58.1485147  41.9300791  17.8923896
  73.2244622  48.8682755  17.8493997  73.4180512  49.7728565  18.0953272
  73.1245240  48.4090174  18.6832582  64.8780933  38.7540646  20.3484324
  64.2308848  39.4530595  20.2548801  65.6481948  39.1876789  20.7160573
  68.2859730  49.0189498  23.4234878  68.1345237  48.7900049  22.5064961
  68.2764410  49.9760099  23.4366223  65.0545067  46.5921410  18.4081144
  65.9837127  46.7432570  18.2350111  64.6336097  46.6805431  17.5529791
  63.8533399  50.6172075  16.1779682  63.7144484  50.2490859  17.0505620
  63.0647995  51.1319714  16.0063640  64.4481551  55.7181171   7.5205218
  64.6233306  55.2469215   8.3350841  63.7614339  56.3446938   7.7486479
  65.4038614  49.9953678  13.5668520  65.0688446  49.9554448  14.4626169
  64.9042559  49.3298394  13.0938930  59.3782858  45.4021308  19.0921101
  59.2402656  44.6701546  19.6932640  60.2887781  45.3130208  18.8105288
  68.3397805  47.3409712   3.8405579  67.7226976  46.6156540   3.7438632
  67.8714294  48.1019072   3.4972653  62.0065158  45.1141267  18.5804780
  62.7164777  44.4734459  18.5391399  61.9634467  45.3654162  19.5030961
  69.9951937  52.0508620  21.5011360  69.9364483  51.3667840  20.8341943
  70.3971456  52.7927610  21.0491986  60.7194092  42.1006485  20.4000420
  60.1831449  41.6497223  21.0522016  60.1310801  42.2352394  19.6570884
  59.0142636  58.8670534  14.2945078  59.2539234  59.4989058  14.9724097
  58.1711832  58.5158574  14.5810438  60.1296351  41.5595136   2.9626883
  59.2525818  41.4383937   2.5989130  60.6054104  40.7681215   2.7105772
  69.9969344  50.0148204  19.7325339  69.1096123  49.6774126  19.8551738
  70.5667895  49.2831235  19.9694105  51.6498492  46.3472296  13.0568391
  52.3369531  46.0334026  12.4689406  51.4946620  47.2513661  12.7835642
  56.4533214  41.2362493  17.4853414  56.3691402  40.6288162  16.7503824
  55.6315920  41.7271511  17.4862911  63.5270498  54.6749657  16.6986582
  63.4540669  55.4804628  17.2105887  63.0847891  54.8741622  15.8734604
  63.3160277  53.9121427  10.2089404  62.5327799  54.4543107  10.3027628
  64.0153023  54.4295406  10.6083645  66.6256928  39.7216056  12.8523609
  67.1225627  38.9686018  12.5324680  65.8543909  39.7580373  12.2866819
  74.4786685  45.4256422  14.4941901  74.4676561  46.3081137  14.1235834
  73.6104064  45.0727972  14.2996438  65.9869181  54.5736491  18.8544741
  66.6997154  55.2083955  18.7820643  65.4959210  54.6700357  18.0384743
  67.7086708  48.4787743  10.4262033  66.7742987  48.5989206  10.2566737
  67.8863377  47.5760210  10.1622043  63.2091896  41.8633439  12.5795294
  62.8389684  41.3104479  13.2676200  63.7050989  41.2591573  12.0270294
  71.0959260  44.3205063  10.9612067  71.5619712  45.1533054  10.8872370
  71.5466760  43.8550044  11.6657325  61.0381095  52.3230934  19.6750312
  61.7390554  52.9567417  19.8279706  60.5676210  52.6645666  18.9145951
  69.1635491  50.6648884   7.9598219  69.4395335  50.5505478   8.8692093
  68.2939989  50.2666369   7.9210392  69.0675922  36.6885650  15.0002968
  68.1539002  36.9189876  15.1685175  69.4969024  36.7724094  15.8517001
  68.8382381  44.8775542  17.5002862  68.1853831  45.1251449  16.8455315
  69.2162761  44.0639680  17.1665340  65.7989555  54.9135235  11.6031033
  65.9811949  54.0956891  12.0658785  66.6222541  55.1302927  11.1655923
  66.1331720  53.8403420   8.8646081  66.6619487  53.3295874   8.2516243
  66.3959940  53.5245950   9.7291614  64.8869954  45.6195353  23.9868899
  64.2110591  45.5189482  24.6571275  65.7097588  45.4634566  24.4504897
  56.6348813  51.8567289  16.6081415  57.2202250  51.1110977  16.7409319
  56.4373651  52.1671246  17.4918078  59.4887468  54.8918537  11.6243857
  58.8197843  55.3764664  11.1407897  59.3500338  55.1387757  12.5387235
  51.2266468  44.4272889  15.3285858  51.2650567  43.8936480  16.1222976
  50.7206760  43.9008095  14.7096835  63.6292737  56.9262280  18.2226515
  64.1811045  57.0893902  18.9875601  63.9698930  57.5166718  17.5506540
  58.6057230  39.2737430  18.8248400  58.6698556  40.1352261  18.4125798
  58.5424350  38.6611431  18.0920759  58.0809502  41.3460562  22.4721434
  58.7081541  40.9637640  23.0858959  57.2237421  41.1274764  22.8377127
  68.4803611  51.7523538  24.0775170  69.0243515  52.3653496  23.5830125
  67.8990456  52.3103116  24.5942183  54.8575045  43.1536991   8.4039789
  55.1528486  42.2447670   8.3506843  53.9563081  43.1324731   8.0820791
  66.7661124  54.8744256  15.2090197  66.6412263  54.0733995  14.7001143
  67.4240215  55.3690449  14.7204167  58.3869292  41.2292988  14.3867338
  57.6655878  41.8428956  14.2474811  59.1762548  41.7650753  14.3083984
  68.8296032  52.6753276  16.8369748  67.8826368  52.5558627  16.7648074
  69.1778805  51.7875774  16.9196009  61.1895606  38.5647415  20.6607989
  61.7130008  38.8109711  21.4234299  60.9707939  39.3967449  20.2411127
  56.5862887  40.8351089   8.5279114  56.2575593  39.9548468   8.3454220
  56.9402257  40.7798758   9.4155503  65.8342466  52.4705992  13.0374100
  65.6867428  51.5422699  13.2181670  66.6595959  52.4926083  12.5531175
  59.7004710  41.1224059   8.8954592  60.0400782  41.6509980   8.1733200
  60.1476830  41.4604465   9.6713158  69.4376588  53.2934551  14.1238973
  70.3623135  53.0877412  13.9863424  69.2691891  53.0450952  15.0328314
  62.3948151  39.5061110  18.3457660  62.0544971  38.7068923  18.7478340
  61.6887157  39.8062821  17.7734493  63.0464623  36.5910422  16.7984983
  63.8690692  36.1170900  16.6763873  63.2902686  37.3700906  17.2983669
  61.6872857  39.6198681   7.0947885  62.4081220  39.9979933   6.5911602
  61.0638161  40.3387557   7.1982863  65.8303980  40.3243830   8.0306217
  66.0467594  41.2068467   7.7295045  65.3498047  39.9330043   7.3011859
  60.5703201  43.2829543  14.6076962  60.4247782  43.5969846  15.5001243
  60.0928405  43.9014443  14.0547860  62.4299584  40.2732091  14.6557851
  62.4161153  39.3773184  14.3190149  63.1472012  40.2802754  15.2896137
  64.2825715  40.7069431  16.7010979  64.0243493  41.6286502  16.6995309
  63.7510755  40.3099865  17.3911443  69.2271904  53.8120218   9.4801064
  69.4008781  53.2466641   8.7274916  69.7200795  54.6121113   9.2980554
  55.0448864  45.8234887  17.5464623  54.5002332  46.5994695  17.6784897
  55.9228213  46.1705692  17.3883744  61.8336480  39.1546471   9.9245421
  61.9552391  38.2263117  10.1236309  61.5438523  39.1685157   9.0123737
  64.7027671  36.8401381  13.0612141  64.7249367  36.9040715  12.1064121
  65.1195730  36.0005890  13.2552647  75.0811295  46.5756641  11.0991364
  75.5242441  45.8263966  10.7010487  74.2037805  46.5666777  10.7165096
  70.2147076  53.1286982   6.5797962  70.9097981  53.7493675   6.7985277
  70.5570226  52.2782334   6.8550340  55.8314885  44.9504783  20.4394780
  55.0896621  45.0987419  21.0259410  55.5107630  45.2113049  19.5761529
  72.1138499  50.5786688   8.1085293  72.6389823  50.9173961   7.3834613
  72.0260852  49.6433703   7.9248428  63.7758548  54.4920762  20.2375170
  64.0845674  54.2469908  21.1097869  64.5734030  54.6967400  19.7494040
  63.7979160  56.6458671  12.4680546  63.3584150  56.1535050  13.1613403
  64.5487277  56.1031639  12.2272621  56.2771499  52.8370212  12.4705174
  57.1029519  52.5373984  12.0903818  55.9265551  52.0677835  12.9194963
  61.2453032  52.1896680  14.5402848  60.6233042  51.5267385  14.2405076
  61.9157899  52.2157812  13.8576496  54.4780104  50.7556539  13.4294108
  53.6412012  50.3278713  13.2478109  54.4503750  50.9488982  14.3664899
  61.3177560  40.6678468  24.1335354  61.3665715  41.5440591  23.7513124
  61.8600074  40.1255861  23.5606997  71.8032405  51.2119592  23.4136491
  71.0127949  51.1943730  22.8740990  71.5665760  51.7507885  24.1685528
  71.9230280  48.0612058  20.7269220  71.9728285  47.8962065  21.6684742
  71.8144204  47.1939317  20.3367100  60.8066539  50.7400604   8.0161308
  60.9554660  51.4236068   7.3627981  61.6132983  50.7205694   8.5310764
  69.2134043  44.0442986  22.0428526  70.1143906  43.9049451  21.7512524
  69.2882017  44.2097441  22.9826704  63.5476848  41.4209841  20.8881713
  62.6780158  41.7143407  20.6164301  63.7836329  42.0050286  21.6088976
  73.4248477  50.4809000  20.9711241  73.1333286  50.8438980  21.8074702
  72.8120609  49.7676008  20.7924573  74.6244160  48.0461879  13.4913811
  75.4591051  48.4851683  13.6551372  74.7603288  47.5700532  12.6722057
  71.6735666  45.6041614  19.4391299  72.1489787  45.7969260  18.6310150
  70.7501231  45.6600800  19.1934683  58.5619172  46.7665781   9.0222377
  58.3165214  45.8628111   9.2202587  58.7315087  46.7682932   8.0801855
  66.2515882  37.6389458  18.4047133  66.7697826  38.3750485  18.0793622
  65.8971015  37.9453451  19.2393892  57.8314820  42.4994139   6.5208539
  57.1384065  42.5738494   5.8648575  57.5866572  41.7354483   7.0430056
  66.5028476  34.0589740  13.9248030  66.7830230  33.3912929  14.5508456
  67.2879083  34.2518836  13.4122693  64.3061945  53.2348734   5.4873056
  63.7335912  53.8538921   5.0343528  64.8794738  53.7848096   6.0212978
  70.3737335  42.4807374  17.6719605  71.3254757  42.5805472  17.6931829
  70.2040785  41.6885643  18.1817689  68.3951714  39.5662957  17.8579006
  67.8001646  39.8467970  17.1625494  68.1101411  40.0556858  18.6295747
  67.5259204  53.5185884   6.6181638  68.4589878  53.4531446   6.8214514
  67.4382417  54.3542151   6.1596171  70.1547221  52.8351755   3.5785586
  70.0760853  52.5011618   4.4721344  70.9756888  53.3273523   3.5777058
  72.8525412  45.7013494  16.7861904  72.8201732  44.7629495  16.9721588
  73.4626036  45.7797531  16.0527729  64.6908743  44.5709547   2.8289108
  65.6367848  44.4415755   2.8977526  64.3122988  43.8324209   3.3058537
  73.0019901  42.4924537  16.8320188  72.4858949  41.7082994  16.6450116
  73.8859849  42.1643254  16.9966707  70.6630628  36.2365553  12.7916000
  70.4655449  35.9280641  13.6759332  71.2730333  36.9627192  12.9213930
  78.6701962  46.7629501  15.9267941  79.4005351  46.5014789  16.4875644
  78.0608908  46.0258223  15.9670009  76.7517259  44.9037363  16.5242392
  76.0250423  44.7693328  15.9158884  76.3364546  45.2114192  17.3299110
  64.5747436  48.6227293  24.2889765  65.4950445  48.8005892  24.4829812
  64.5397019  47.6783338  24.1369465  62.8751660  42.4959523   2.7643994
  61.9683116  42.1992636   2.8406707  63.1527641  42.1989341   1.8978280
  53.7929601  43.8165887  13.2143040  53.4732385  42.9631195  12.9217414
  53.2463029  44.0314465  13.9701007  57.5709508  46.5328328  16.9312547
  57.7895518  47.4645435  16.9500580  57.9835282  46.1736302  17.7167350
  64.4913726  37.0396413   8.9188235  63.6814454  36.6943498   9.2943481
  65.1798143  36.7303957   9.5075846  66.4204274  36.1174460  10.5412532
  66.9735313  36.5369913  11.2002555  66.6574361  35.1910208  10.5835488
  62.4437374  42.1061533  26.3215295  62.3434100  43.0555890  26.2527387
  62.2258916  41.7779772  25.4491366  61.6450445  39.3546458   2.9055973
  62.5069609  39.6801357   3.1651790  61.8300789  38.5677954   2.3929039
  53.6617861  47.4368798  15.1836162  52.9681332  47.0222751  14.6706116
  54.4090852  47.4789335  14.5869580  69.7983081  38.2274985  10.0491196
  69.2181750  38.8859789   9.6669248  69.5319014  37.4052330   9.6378613
  68.2486648  37.6280043  12.2512516  68.7486426  37.7396577  11.4426835
  68.8922256  37.3241096  12.8913325  62.3068644  45.5358672  25.1380357
  61.8235725  46.3359032  25.3444246  62.3929583  45.5466617  24.1847801
  55.5754603  47.3687052  13.0602176  55.5525291  47.4674739  12.1084060
  55.8855240  48.2152203  13.3819343  58.2341981  49.4263207  17.1748791
  59.1885235  49.3947149  17.1078722  58.0354505  48.9653831  17.9899017
  58.8241363  47.9964323  19.7419589  59.6434252  48.4908402  19.7654426
  59.0978171  47.0796291  19.7137156  68.5807959  40.3875075   9.1047544
  67.6933814  40.6724726   8.8867739  68.9961949  40.2268839   8.2574821
  71.9322496  40.4121596  12.8201883  72.7082886  40.9018049  13.0926500
  71.2070630  40.8379651  13.2773753  74.3695054  41.1249216  13.8775824
  74.9639545  40.8844951  13.1669132  74.4421638  40.4056346  14.5049360
  56.5892210  54.9682826  14.1918989  56.4546678  54.2083227  13.6256987
  56.1724272  55.6923726  13.7247778  67.7251173  50.1519750   3.1995564
  68.4287023  50.3569753   3.8153220  67.0013822  50.7196512   3.4644648
  68.5548983  45.9029611   9.3197834  68.4984185  46.3598163   8.4805467
  69.1077326  45.1420296   9.1420677  72.3653789  41.6919343  10.1447954
  72.1090723  41.2915979  10.9756161  71.7406657  42.4063137  10.0198093
  76.6766127  44.4315416  12.6519245  76.1165685  44.5008606  13.4250807
  76.0709630  44.2556401  11.9318741  59.7461336  55.8652143  14.4037431
  59.6293720  56.8097576  14.3016122  58.9253782  55.5625705  14.7923231
  69.6337870  50.5902279   5.2494024  70.4683474  50.1583478   5.0671499
  69.4722213  50.4184293   6.1770919  69.2883762  47.0934393   6.6150363
  69.2332566  46.9278664   5.6738808  68.6629818  47.8010425   6.7712553
  54.0776277  42.3302457  20.4411786  54.7235141  41.8201411  20.9299011
  53.8693429  43.0671139  21.0155211  66.6029670  49.3983304  25.9403926
  67.4720829  49.5723957  25.5790561  66.1236421  50.2177721  25.8179656
  62.5979888  36.5942502   6.1935682  62.5858558  37.5384341   6.3503953
  63.4903310  36.4112647   5.8995143  60.7715850  56.5180405  17.6193360
  61.6743097  56.5504016  17.9359855  60.5453220  55.5880856  17.6339696
  62.5269452  55.2711392  14.2803438  61.5765083  55.2713254  14.1667811
  62.8301938  54.5244126  13.7639473  66.4132007  33.1885278  10.4481619
  65.6464403  32.6343765  10.5938301  66.8242712  33.2607147  11.3095770
  58.4173768  39.4770074  24.5386800  59.2805230  39.1206879  24.7490124
  57.8439179  39.1383969  25.2262204  78.2622145  61.1071930  15.3449201
  78.9000555  60.9878678  14.6412541  78.1442988  62.0552774  15.4037153
  75.0711852  61.0599358  15.2810726  74.7330363  60.9440423  14.3931260
  75.9401620  60.6590524  15.2611732  70.9298667  62.9134835  11.2707616
  70.3663533  62.8224772  10.5023904  70.8151062  62.0934739  11.7510109
  75.5531635  62.2134210  21.2396931  75.5420275  61.8187008  20.3677435
  75.7152274  61.4800283  21.8330703  68.4763099  64.4086026  14.1091837
  69.2684391  64.0676851  13.6938136  68.7159749  64.5181001  15.0293990
  76.5098226  66.5805803   6.5822081  75.8586206  67.1659883   6.1956095
  77.3042589  67.1111997   6.6417119  70.4353853  63.6694940   6.9809216
  71.2084729  63.1223927   6.8422092  70.7879252  64.5339189   7.1923677
  72.2738896  64.9971322  20.1876115  71.9828762  65.9016953  20.0722781
  72.9095880  65.0387850  20.9020185  73.1995103  62.3748170  16.7777475
  73.7958675  62.1504193  16.0634438  73.2570074  61.6332916  17.3802923
  72.7720131  59.8287606   4.6127666  73.0245652  59.3069127   3.8511129
  71.8344690  59.6653751   4.7154349  77.8163414  58.8323384  12.4202409
  78.6026503  58.4142807  12.0692826  78.0802118  59.7369476  12.5884057
  77.9873491  64.2696234   7.1191066  77.3519324  64.3430861   7.8311970
  77.6570898  64.8589833   6.4410145  83.2171841  58.7698617  13.3235387
  83.9497013  58.1997834  13.5573217  82.4611197  58.3820218  13.7641893
  72.4916420  61.7315712   6.8152041  72.3752678  61.0560615   7.4833125
  72.6018680  61.2448086   5.9984194  74.8347961  61.1925859  10.5198730
  74.4706168  60.6656480  11.2311651  75.6915077  60.8024328  10.3465215
  80.7397261  52.4820191  17.7829996  80.4080586  53.3515602  17.5591211
  80.1442875  52.1656475  18.4624026  74.4753448  56.2215759   5.5160078
  74.6427850  57.0895995   5.8830549  74.2850617  56.3843040   4.5921368
  77.2328781  64.6832737  17.1825909  76.9329504  65.5857776  17.0741716
  76.8879840  64.4164921  18.0347062  70.6841262  61.1346534  13.2162613
  69.7591759  61.0022748  13.4240305  70.9325676  61.9140754  13.7132556
  80.6325925  57.2015278  14.8623346  79.7242802  57.1330686  14.5682107
  80.5813520  57.6787223  15.6905172  74.4542669  58.6773416   6.5006745
  74.3342294  59.1230467   7.3392225  73.7595257  59.0258734   5.9420283
  68.0450073  60.7779808  14.0506402  68.1742455  61.0314287  14.9645814
  67.3647525  61.3707516  13.7311057  72.2149561  71.4477058  10.1496876
  72.1373590  72.3984883  10.2285357  71.6111204  71.1022930  10.8071803
  74.7066790  58.6204923  22.8058243  73.9300125  59.1798843  22.7961108
  75.3457354  59.1061706  23.3273113  82.4987571  55.4031716  16.6401220
  81.8561951  55.6964249  15.9941015  81.9942500  55.2884636  17.4454417
  80.1527735  59.1494889   7.3287079  81.0645591  59.3822276   7.1534777
  79.6437382  59.7331933   6.7662158  72.9613163  61.4290377  22.3676210
  73.7027847  61.9675421  22.0911034  72.2550148  62.0556665  22.5247762
  78.4368502  63.5719517  20.9648372  78.8451858  63.1301928  20.2203004
  77.7145764  62.9972145  21.2182565  74.7899572  58.5092124  18.3381929
  75.6360768  58.9331537  18.4816578  74.7298210  57.8525748  19.0320492
  78.7597317  64.1320708  14.7200661  78.1306180  64.2966422  14.0176729
  78.3722979  64.5462317  15.4911625  82.6386549  65.0675146  12.0745024
  81.9537587  65.4474047  11.5242058  82.7230398  65.6770472  12.8076972
  77.9399018  56.1696492  19.9963102  77.6959950  56.9238553  19.4597378
  78.2158948  56.5481840  20.8310349  79.8937481  62.7135105  18.6740368
  80.1054376  63.3566864  17.9974749  79.8467229  61.8797421  18.2062298
  77.4963710  55.3252925  15.5776940  76.6348189  55.6234179  15.8693678
  77.5226144  55.5423324  14.6457973  74.3125279  63.8695116  11.9850746
  74.7763624  64.1482819  11.1955368  74.0482077  62.9678560  11.8023836
  71.2049360  63.4166597  14.9230509  71.7750717  63.8453866  14.2847994
  71.7957472  63.1349182  15.6214695  73.2494165  59.9918268   8.7940311
  73.9518208  60.4439312   9.2614237  72.9174793  59.3502087   9.4220204
  71.6974527  58.5830025  23.1691520  71.0673187  59.2646306  23.4026917
  71.5910614  58.4713106  22.2244659  66.9919499  58.2501821  14.0957444
  66.2018553  58.5059349  13.6197555  67.4830746  59.0650159  14.2009485
  81.0083309  65.5907060  16.8462725  81.8300752  65.1887247  16.5645407
  81.0045711  65.4875294  17.7978841  68.9434244  58.6146400  11.0540921
  68.1465408  58.7265094  11.5724417  68.7159837  58.9533052  10.1881812
  74.7739912  65.1391103  19.0023436  74.8384344  65.6011511  19.8381608
  74.0650836  64.5088468  19.1305746  65.2757202  58.5032311  16.5272435
  65.5265240  59.3879321  16.7930011  65.8116750  58.3236913  15.7547527
  89.0989302  61.9345808  13.1947697  88.3453010  61.3653207  13.0391701
  89.2336843  61.9008473  14.1418331  74.4887930  66.8059211   8.8702416
  74.3533604  67.6510747   9.2987264  75.0297742  67.0078488   8.1068350
  70.9755269  52.8850791  25.5316771  70.5822215  52.3316989  26.2064416
  71.7921410  53.1961369  25.9223289  67.9417327  64.3234649   9.4430341
  68.4541848  65.1177899   9.5935906  68.5940040  63.6260939   9.3763943
  69.7512212  67.4400405  11.5253094  69.9278840  68.3618370  11.3374078
  70.5469045  67.1258824  11.9547474  73.8923230  54.3008670  23.1237028
  74.6332944  54.9015823  23.0441490  74.1241153  53.5586308  22.5655070
  69.0364568  59.4865037  21.4015258  68.9218083  58.5850294  21.7022357
  68.1809086  59.7328734  21.0500074  76.1156406  67.4282777  23.0002758
  75.6720260  66.6419156  22.6823663  76.7773620  67.6161928  22.3346649
  70.8743527  68.9578579  17.5263437  71.4250952  68.8295642  16.7540431
  70.0355003  69.2573468  17.1758330  78.2137644  67.7085577  21.0284159
  78.1956119  68.5294458  20.5364429  79.1357564  67.5839652  21.2534301
  74.6710698  65.2229707  21.8707668  75.2039035  64.4617995  21.6406976
  74.1424779  64.9303359  22.6131822  77.8380393  50.3289773  17.4001310
  77.4944663  51.2191414  17.3240420  78.2059356  50.1391430  16.5370895
  65.9066244  62.6523303  10.2189912  66.7441466  63.0620311  10.0023619
  66.0844511  61.7122745  10.1890106  77.8030676  60.3198384   5.9073745
  77.2877299  61.0902988   6.1462132  77.5307984  59.6463520   6.5306806
  75.3877787  55.1648085  10.9658983  74.5319383  54.7754935  10.7864622
  75.8004739  55.2440045  10.1058769  76.9176934  52.6994428  15.3650543
  76.4141729  52.6624563  14.5518348  77.2107540  53.6087171  15.4247200
  73.1619819  52.7833158  14.3716725  74.0272816  52.5875966  14.0122614
  73.2297328  52.5543509  15.2986081  82.7764950  63.0730738   7.8426918
  81.9994393  62.7341898   7.3982080  83.4556431  63.0783362   7.1681883
  77.5916979  58.1925476   7.7333526  77.2867115  58.5071625   8.5843669
  78.5447421  58.2706896   7.7760859  76.0363411  64.3515699   9.3826480
  75.5084772  63.6168459   9.0699717  75.5350914  65.1290376   9.1366448
  81.0156257  62.5464720  14.4993526  80.3579931  63.2363981  14.5873655
  81.8196656  62.9361152  14.8427513  70.7682139  55.0135365  11.7433091
  71.3425890  54.7910547  11.0106284  71.3553121  55.0824060  12.4961693
  79.8261716  60.9009092  12.5497468  80.3393597  61.5339084  13.0519178
  80.4762940  60.3010288  12.1840828  71.0951726  57.0439826   5.7628977
  70.2589038  57.3814513   6.0838251  70.9556495  56.9088806   4.8256114
  73.0704806  51.8876614  10.4708161  72.4169219  51.5725632   9.8464776
  73.0285280  51.2652355  11.1967984  74.1816011  62.1695909   2.3861453
  73.2743073  61.9385163   2.5852602  74.6787043  61.3733529   2.5735434
  76.3042547  58.3758548  14.7955808  75.3865108  58.5973495  14.6377497
  76.7202690  58.4504858  13.9367516  77.0877594  59.7749964   9.9258489
  77.8349413  60.2871361   9.6165611  77.3569184  59.4534016  10.7862882
  75.3604245  62.2708504   6.9085443  74.4515464  61.9867537   7.0057913
  75.3899328  62.6907583   6.0488750  80.5923512  65.8815094  10.6776611
  80.1385839  65.0406004  10.7341801  79.9617479  66.5176492  11.0151391
  79.5356432  56.8107080  11.9077278  78.7979188  56.2984466  12.2387521
  79.7883205  56.3707461  11.0960555  79.0356451  67.7191590  11.6126429
  79.3279426  68.2796648  10.8938794  79.5455072  68.0120151  12.3679588
  79.6368059  49.5883332  12.5019047  79.9426936  48.7280695  12.2144962
  80.3620664  50.1800952  12.3018041  65.9292415  59.9914018  10.8900645
  65.7316815  59.3983379  10.1651712  65.3739079  59.6866229  11.6076584
  73.9089139  59.8837125  13.0095238  73.9637748  58.9310961  12.9337715
  73.0980341  60.0396564  13.4936537  71.8481499  58.5014185  10.7685617
  71.0349364  58.8008355  11.1750809  72.3440493  58.1069873  11.4860099
  73.9990076  68.4971942  12.7019882  73.9566255  68.7232788  11.7728414
  74.9152775  68.2635316  12.8505683  77.4455710  58.9656009  19.6000511
  77.8005098  59.1927482  20.4594977  78.0927841  59.2974386  18.9777766
  83.1753447  62.0874445  10.3049840  83.0371346  62.2776041   9.3771029
  82.8189666  62.8493828  10.7617891  71.3395573  56.0732540  16.3846852
  71.9794953  55.9321299  15.6869815  70.5073104  55.7867054  16.0085454
  83.2022827  64.1550972  15.3161112  83.6359333  64.0626261  16.1644166
  83.9154407  64.1308472  14.6781128  72.1155877  65.3734971  12.4981845
  72.9096476  64.8785291  12.2964420  71.4047570  64.8452834  12.1349550
  76.9350722  67.7553066  16.8494212  76.9887744  68.3244002  17.6171928
  76.0665503  67.9254951  16.4848249  68.4238641  59.5178052   8.5741597
  67.4936229  59.4562508   8.7911559  68.5196113  58.9954005   7.7778239
  68.3424190  56.0432865  11.1619839  68.6031007  56.9578198  11.0528999
  69.1641362  55.5757308  11.3116452  69.8149115  57.4570622  18.3318664
  70.4872168  57.2487984  17.6831312  68.9878902  57.2592708  17.8923896
  84.0638376  64.1974673  17.8493997  84.2574266  65.1020483  18.0953272
  83.9638994  63.7382092  18.6832582  75.7174687  54.0832563  20.3484324
  75.0702602  54.7822513  20.2548801  76.4875702  54.5168707  20.7160573
  79.1253485  64.3481415  23.4234878  78.9738991  64.1191967  22.5064961
  79.1158164  65.3052017  23.4366223  75.8938821  61.9213328  18.4081144
  76.8230881  62.0724488  18.2350111  75.4729851  62.0097349  17.5529791
  74.6927153  65.9463993  16.1779682  74.5538239  65.5782777  17.0505620
  73.9041749  66.4611632  16.0063640  76.2432368  65.3245595  13.5668520
  75.9082201  65.2846365  14.4626169  75.7436314  64.6590311  13.0938930
  70.2176612  60.7313225  19.0921101  70.0796410  59.9993464  19.6932640
  71.1281536  60.6422125  18.8105288  72.8458913  60.4433185  18.5804780
  73.5558531  59.8026377  18.5391399  72.8028221  60.6946079  19.5030961
  80.8345692  67.3800538  21.5011360  80.7758238  66.6959758  20.8341943
  81.2365210  68.1219528  21.0491986  71.5587847  57.4298403  20.4000420
  71.0225204  56.9789141  21.0522016  70.9704555  57.5644311  19.6570884
  69.8536390  74.1962452  14.2945078  70.0932989  74.8280976  14.9724097
  69.0105587  73.8450492  14.5810438  70.9690106  56.8887054   2.9626883
  70.0919572  56.7675855   2.5989130  71.4447859  56.0973132   2.7105772
  80.8363099  65.3440122  19.7325339  79.9489878  65.0066044  19.8551738
  81.4061650  64.6123153  19.9694105  62.4892246  61.6764214  13.0568391
  63.1763286  61.3625944  12.4689406  62.3340375  62.5805578  12.7835642
  67.2926968  56.5654410  17.4853414  67.2085157  55.9580080  16.7503824
  66.4709675  57.0563429  17.4862911  74.3664252  70.0041574  16.6986582
  74.2934424  70.8096546  17.2105887  73.9241645  70.2033540  15.8734604
  74.1554032  69.2413344  10.2089404  73.3721554  69.7835024  10.3027628
  74.8546777  69.7587324  10.6083645  77.4650682  55.0507974  12.8523609
  77.9619382  54.2977936  12.5324680  76.6937664  55.0872290  12.2866819
  85.3180439  60.7548339  14.4941901  85.3070316  61.6373055  14.1235834
  84.4497819  60.4019890  14.2996438  76.8262936  69.9028408  18.8544741
  77.5390908  70.5375873  18.7820643  76.3352964  69.9992274  18.0384743
  78.5480463  63.8079661  10.4262033  77.6136741  63.9281123  10.2566737
  78.7257131  62.9052128  10.1622043  74.0485651  57.1925357  12.5795294
  73.6783438  56.6396397  13.2676200  74.5444743  56.5883490  12.0270294
  81.9353014  59.6496980  10.9612067  82.4013466  60.4824972  10.8872370
  82.3860515  59.1841962  11.6657325  71.8774849  67.6522852  19.6750312
  72.5784309  68.2859335  19.8279706  71.4069964  67.9937583  18.9145951
  80.0029245  65.9940802   7.9598219  80.2789089  65.8797396   8.8692093
  79.1333744  65.5958286   7.9210392  79.9069677  52.0177567  15.0002968
  78.9932757  52.2481794  15.1685175  80.3362778  52.1016011  15.8517001
  79.6776135  60.2067459  17.5002862  79.0247586  60.4543367  16.8455315
  80.0556515  59.3931597  17.1665340  76.6383309  70.2427152  11.6031033
  76.8205704  69.4248808  12.0658785  77.4616295  70.4594845  11.1655923
  76.9725475  69.1695338   8.8646081  77.5013241  68.6587792   8.2516243
  77.2353694  68.8537868   9.7291614  75.7263708  60.9487270  23.9868899
  75.0504345  60.8481400  24.6571275  76.5491342  60.7926484  24.4504897
  67.4742567  67.1859207  16.6081415  68.0596004  66.4402895  16.7409319
  67.2767406  67.4963164  17.4918078  70.3281223  70.2210454  11.6243857
  69.6591598  70.7056582  11.1407897  70.1894092  70.4679675  12.5387235
  62.0660222  59.7564807  15.3285858  62.1044322  59.2228398  16.1222976
  61.5600515  59.2300013  14.7096835  74.4686491  72.2554198  18.2226515
  75.0204799  72.4185819  18.9875601  74.8092685  72.8458636  17.5506540
  69.4450984  54.6029348  18.8248400  69.5092311  55.4644178  18.4125798
  69.3818105  53.9903349  18.0920759  68.9203257  56.6752480  22.4721434
  69.5475296  56.2929557  23.0858959  68.0631176  56.4566682  22.8377127
  79.3197366  67.0815455  24.0775170  79.8637270  67.6945413  23.5830125
  78.7384210  67.6395034  24.5942183  65.6968800  58.4828909   8.4039789
  65.9922241  57.5739588   8.3506843  64.7956835  58.4616649   8.0820791
  77.6054878  70.2036173  15.2090197  77.4806018  69.4025913  14.7001143
  78.2633970  70.6982367  14.7204167  69.2263047  56.5584906  14.3867338
  68.5049632  57.1720873  14.2474811  70.0156302  57.0942671  14.3083984
  79.6689787  68.0045193  16.8369748  78.7220122  67.8850545  16.7648074
  80.0172560  67.1167691  16.9196009  72.0289360  53.8939332  20.6607989
  72.5523762  54.1401629  21.4234299  71.8101694  54.7259367  20.2411127
  67.4256641  56.1643007   8.5279114  67.0969347  55.2840386   8.3454220
  67.7796012  56.1090676   9.4155503  76.6736220  67.7997910  13.0374100
  76.5261183  66.8714617  13.2181670  77.4989714  67.8218000  12.5531175
  70.5398464  56.4515977   8.8954592  70.8794537  56.9801898   8.1733200
  70.9870585  56.7896383   9.6713158  80.2770342  68.6226468  14.1238973
  81.2016889  68.4169330  13.9863424  80.1085645  68.3742869  15.0328314
  73.2341905  54.8353027  18.3457660  72.8938726  54.0360840  18.7478340
  72.5280912  55.1354738  17.7734493  73.8858377  51.9202340  16.7984983
  74.7084446  51.4462818  16.6763873  74.1296441  52.6992824  17.2983669
  72.5266612  54.9490598   7.0947885  73.2474974  55.3271851   6.5911602
  71.9031916  55.6679475   7.1982863  76.6697734  55.6535747   8.0306217
  76.8861349  56.5360385   7.7295045  76.1891802  55.2621961   7.3011859
  71.4096956  58.6121460  14.6076962  71.2641537  58.9261763  15.5001243
  70.9322159  59.2306361  14.0547860  73.2693339  55.6024008  14.6557851
  73.2554907  54.7065102  14.3190149  73.9865767  55.6094672  15.2896137
  75.1219469  56.0361349  16.7010979  74.8637247  56.9578419  16.6995309
  74.5904510  55.6391783  17.3911443  80.0665658  69.1412136   9.4801064
  80.2402536  68.5758558   8.7274916  80.5594549  69.9413031   9.2980554
  65.8842618  61.1526805  17.5464623  65.3396086  61.9286613  17.6784897
  66.7621968  61.4997609  17.3883744  72.6730235  54.4838389   9.9245421
  72.7946146  53.5555035  10.1236309  72.3832277  54.4977075   9.0123737
  75.5421425  52.1693299  13.0612141  75.5643122  52.2332632  12.1064121
  75.9589484  51.3297808  13.2552647  85.9205049  61.9048559  11.0991364
  86.3636195  61.1555884  10.7010487  85.0431560  61.8958695  10.7165096
  66.6708640  60.2796701  20.4394780  65.9290376  60.4279336  21.0259410
  66.3501384  60.5404967  19.5761529  74.6152303  69.8212679  20.2375170
  74.9239429  69.5761826  21.1097869  75.4127785  70.0259318  19.7494040
  74.6372915  71.9750589  12.4680546  74.1977905  71.4826968  13.1613403
  75.3881032  71.4323557  12.2272621  67.1165254  68.1662130  12.4705174
  67.9423273  67.8665902  12.0903818  66.7659306  67.3969752  12.9194963
  72.0846787  67.5188598  14.5402848  71.4626796  66.8559303  14.2405076
  72.7551654  67.5449730  13.8576496  65.3173859  66.0848456  13.4294108
  64.4805767  65.6570631  13.2478109  65.2897504  66.2780900  14.3664899
  72.1571314  55.9970386  24.1335354  72.2059470  56.8732509  23.7513124
  72.6993828  55.4547779  23.5606997  82.6426160  66.5411509  23.4136491
  81.8521704  66.5235648  22.8740990  82.4059514  67.0799803  24.1685528
  82.7624035  63.3903976  20.7269220  82.8122040  63.2253983  21.6684742
  82.6537958  62.5231235  20.3367100  71.6460294  66.0692521   8.0161308
  71.7948414  66.7527986   7.3627981  72.4526737  66.0497611   8.5310764
  80.0527797  59.3734904  22.0428526  80.9537660  59.2341369  21.7512524
  80.1275772  59.5389359  22.9826704  74.3870603  56.7501758  20.8881713
  73.5173912  57.0435325  20.6164301  74.6230083  57.3342203  21.6088976
  84.2642232  65.8100917  20.9711241  83.9727040  66.1730898  21.8074702
  83.6514363  65.0967925  20.7924573  85.4637914  63.3753797  13.4913811
  86.2984805  63.8143601  13.6551372  85.5997043  62.8992450  12.6722057
  82.5129420  60.9333532  19.4391299  82.9883542  61.1261178  18.6310150
  81.5894985  60.9892718  19.1934683  69.4012927  62.0957699   9.0222377
  69.1558969  61.1920029   9.2202587  69.5708841  62.0974849   8.0801855
  77.0909636  52.9681375  18.4047133  77.6091580  53.7042402  18.0793622
  76.7364769  53.2745369  19.2393892  68.6708574  57.8286057   6.5208539
  67.9777819  57.9030412   5.8648575  68.4260326  57.0646400   7.0430056
  77.3422231  49.3881658  13.9248030  77.6223984  48.7204847  14.5508456
  78.1272838  49.5810754  13.4122693  81.2131089  57.8099292  17.6719605
  82.1648512  57.9097390  17.6931829  81.0434539  57.0177560  18.1817689
  79.2345468  54.8954875  17.8579006  78.6395401  55.1759888  17.1625494
  78.9495165  55.3848776  18.6295747  83.6919167  61.0305412  16.7861904
  83.6595487  60.0921412  16.9721588  84.3019790  61.1089448  16.0527729
  75.5302498  59.9001465   2.8289108  76.4761602  59.7707673   2.8977526
  75.1516743  59.1616126   3.3058537  83.8413655  57.8216455  16.8320188
  83.3252704  57.0374912  16.6450116  84.7253604  57.4935172  16.9966707
  81.5024382  51.5657471  12.7916000  81.3049203  51.2572559  13.6759332
  82.1124088  52.2919110  12.9213930  89.5095717  62.0921418  15.9267941
  90.2399105  61.8306707  16.4875644  88.9002662  61.3550140  15.9670009
  87.5911014  60.2329281  16.5242392  86.8644177  60.0985246  15.9158884
  87.1758301  60.5406110  17.3299110  75.4141190  63.9519211  24.2889765
  76.3344200  64.1297810  24.4829812  75.3790773  63.0075256  24.1369465
  73.7145415  57.8251441   2.7643994  72.8076870  57.5284554   2.8406707
  73.9921396  57.5281259   1.8978280  64.6323355  59.1457804  13.2143040
  64.3126140  58.2923113  12.9217414  64.0856783  59.3606383  13.9701007
  68.4103263  61.8620245  16.9312547  68.6289273  62.7937353  16.9500580
  68.8229037  61.5028220  17.7167350  75.3307481  52.3688331   8.9188235
  74.5208209  52.0235416   9.2943481  76.0191897  52.0595874   9.5075846
  77.2598029  51.4466377  10.5412532  77.8129067  51.8661831  11.2002555
  77.4968115  50.5202126  10.5835488  73.2831128  57.4353451  26.3215295
  73.1827855  58.3847808  26.2527387  73.0652670  57.1071690  25.4491366
  72.4844199  54.6838376   2.9055973  73.3463363  55.0093274   3.1651790
  72.6694544  53.8969872   2.3929039  64.5011615  62.7660716  15.1836162
  63.8075087  62.3514669  14.6706116  65.2484606  62.8081252  14.5869580
  80.6376836  53.5566903  10.0491196  80.0575505  54.2151707   9.6669248
  80.3712769  52.7344247   9.6378613  79.0880402  52.9571960  12.2512516
  79.5880181  53.0688495  11.4426835  79.7316010  52.6533013  12.8913325
  73.1462398  60.8650590  25.1380357  72.6629480  61.6650950  25.3444246
  73.2323337  60.8758535  24.1847801  66.4148358  62.6978970  13.0602176
  66.3919046  62.7966657  12.1084060  66.7248994  63.5444120  13.3819343
  69.0735736  64.7555125  17.1748791  70.0278989  64.7239067  17.1078722
  68.8748259  64.2945748  17.9899017  69.6635118  63.3256241  19.7419589
  70.4828007  63.8200319  19.7654426  69.9371925  62.4088209  19.7137156
  79.4201714  55.7166993   9.1047544  78.5327569  56.0016644   8.8867739
  79.8355703  55.5560756   8.2574821  82.7716250  55.7413514  12.8201883
  83.5476640  56.2309966  13.0926500  82.0464384  56.1671568  13.2773753
  85.2088809  56.4541133  13.8775824  85.8033299  56.2136869  13.1669132
  85.2815392  55.7348264  14.5049360  67.4285964  70.2974744  14.1918989
  67.2940432  69.5375145  13.6256987  67.0118027  71.0215644  13.7247778
  79.3942738  61.2321529   9.3197834  79.3377939  61.6890080   8.4805467
  79.9471080  60.4712214   9.1420677  83.2047544  57.0211261  10.1447954
  82.9484478  56.6207896  10.9756161  82.5800412  57.7355055  10.0198093
  87.5159881  59.7607334  12.6519245  86.9559439  59.8300523  13.4250807
  86.9103385  59.5848319  11.9318741  70.5855090  71.1944061  14.4037431
  70.4687474  72.1389494  14.3016122  69.7647537  70.8917623  14.7923231
  80.1277517  62.4226310   6.6150363  80.0726321  62.2570582   5.6738808
  79.5023572  63.1302343   6.7712553  64.9170032  57.6594375  20.4411786
  65.5628896  57.1493329  20.9299011  64.7087183  58.3963056  21.0155211
  77.4423424  64.7275222  25.9403926  78.3114584  64.9015874  25.5790561
  76.9630176  65.5469639  25.8179656  73.4373642  51.9234419   6.1935682
  73.4252312  52.8676259   6.3503953  74.3297064  51.7404565   5.8995143
  71.6109604  71.8472323  17.6193360  72.5136851  71.8795933  17.9359855
  71.3846974  70.9172774  17.6339696  73.3663206  70.6003310  14.2803438
  72.4158837  70.6005171  14.1667811  73.6695693  69.8536044  13.7639473
  77.2525762  48.5177196  10.4481619  76.4858158  47.9635683  10.5938301
  77.6636467  48.5899065  11.3095770  69.2567523  54.8061992  24.5386800
  70.1198985  54.4498796  24.7490124  68.6832934  54.4675886  25.2262204
  86.3925389  77.5426128  21.2396931  86.3814030  77.1478926  20.3677435
  86.5546029  76.8092200  21.8330703  83.1132650  80.3263240  20.1876115
  82.8222516  81.2308870  20.0722781  83.7489635  80.3679767  20.9020185
  84.0388857  77.7040088  16.7777475  84.6352429  77.4796111  16.0634438
  84.0963829  76.9624834  17.3802923  91.5791016  67.8112109  17.7829996
  91.2474341  68.6807520  17.5591211  90.9836629  67.4948393  18.4624026
  78.8843828  76.1071726  14.0506402  79.0136209  76.3606204  14.9645814
  78.2041279  76.6999434  13.7311057  85.5460545  73.9496841  22.8058243
  84.7693879  74.5090761  22.7961108  86.1851108  74.4353624  23.3273113
  93.3381326  70.7323634  16.6401220  92.6955706  71.0256167  15.9941015
  92.8336254  70.6176554  17.4454417  83.8006917  76.7582294  22.3676210
  84.5421602  77.2967338  22.0911034  83.0943903  77.3848583  22.5247762
  89.2762257  78.9011435  20.9648372  89.6845613  78.4593845  20.2203004
  88.5539518  78.3264062  21.2182565  85.6293327  73.8384042  18.3381929
  86.4754522  74.2623455  18.4816578  85.5691965  73.1817666  19.0320492
  88.7792772  71.4988410  19.9963102  88.5353704  72.2530470  19.4597378
  89.0552703  71.8773757  20.8310349  88.3357464  70.6544843  15.5776940
  87.4741943  70.9526096  15.8693678  88.3619899  70.8715242  14.6457973
  82.5368281  73.9121942  23.1691520  81.9066942  74.5938223  23.4026917
  82.4304369  73.8005024  22.2244659  77.8313253  73.5793738  14.0957444
  77.0412307  73.8351267  13.6197555  78.3224501  74.3942076  14.2009485
  85.6133666  80.4683021  19.0023436  85.6778099  80.9303428  19.8381608
  84.9044590  79.8380386  19.1305746  76.1150956  73.8324229  16.5272435
  76.3658995  74.7171239  16.7930011  76.6510505  73.6528830  15.7547527
  81.8149024  68.2142708  25.5316771  81.4215969  67.6608907  26.2064416
  82.6315164  68.5253287  25.9223289  84.7316985  69.6300587  23.1237028
  85.4726698  70.2307741  23.0441490  84.9634908  68.8878225  22.5655070
  79.8758323  74.8156955  21.4015258  79.7611838  73.9142212  21.7022357
  79.0202840  75.0620651  21.0500074  86.9550160  82.7574695  23.0002758
  86.5114015  81.9711074  22.6823663  87.6167374  82.9453845  22.3346649
  85.5104453  80.5521624  21.8707668  86.0432790  79.7909913  21.6406976
  84.9818534  80.2595276  22.6131822  88.6774148  65.6581690  17.4001310
  88.3338417  66.5483332  17.3240420  89.0453110  65.4683348  16.5370895
  87.7570688  68.0286345  15.3650543  87.2535484  67.9916481  14.5518348
  88.0501295  68.9379088  15.4247200  84.0013574  68.1125075  14.3716725
  84.8666571  67.9167884  14.0122614  84.0691083  67.8835427  15.2986081
  81.6075893  70.3427283  11.7433091  82.1819645  70.1202465  11.0106284
  82.1946875  70.4115978  12.4961693  83.9098561  67.2168532  10.4708161
  83.2562973  66.9017549   9.8464776  83.8679035  66.5944272  11.1967984
  90.4761813  64.9175250  12.5019047  90.7820690  64.0572613  12.2144962
  91.2014418  65.5092870  12.3018041  88.2849465  74.2947927  19.6000511
  88.6398852  74.5219400  20.4594977  88.9321596  74.6266304  18.9777766
  82.1789328  71.4024458  16.3846852  82.8188707  71.2613217  15.6869815
  81.3466858  71.1158971  16.0085454  79.1817944  71.3724783  11.1619839
  79.4424761  72.2870116  11.0528999  80.0035116  70.9049225  11.3116452
  80.6542870  72.7862540  18.3318664  81.3265923  72.5779902  17.6831312
  79.8272656  72.5884626  17.8923896  86.5568442  69.4124481  20.3484324
  85.9096357  70.1114431  20.2548801  87.3269457  69.8460625  20.7160573
  89.9647239  79.6773333  23.4234878  89.8132746  79.4483885  22.5064961
  89.9551919  80.6343935  23.4366223  86.7332576  77.2505246  18.4081144
  87.6624636  77.4016405  18.2350111  86.3123606  77.3389267  17.5529791
  81.0570367  76.0605143  19.0921101  80.9190165  75.3285382  19.6932640
  81.9675290  75.9714043  18.8105288  83.6852667  75.7725102  18.5804780
  84.3952286  75.1318295  18.5391399  83.6421976  76.0237997  19.5030961
  82.3981601  72.7590320  20.4000420  81.8618958  72.3081059  21.0522016
  81.8098310  72.8936229  19.6570884  73.3286000  77.0056131  13.0568391
  74.0157040  76.6917861  12.4689406  73.1734129  77.9097496  12.7835642
  78.1320723  71.8946328  17.4853414  78.0478911  71.2871997  16.7503824
  77.3103429  72.3855346  17.4862911  88.3044437  70.3799891  12.8523609
  88.8013136  69.6269854  12.5324680  87.5331418  70.4164208  12.2866819
  82.7168604  82.9814769  19.6750312  83.4178063  83.6151252  19.8279706
  82.2463719  83.3229501  18.9145951  90.7463431  67.3469485  15.0002968
  89.8326511  67.5773712  15.1685175  91.1756533  67.4307929  15.8517001
  90.5169890  75.5359377  17.5002862  89.8641340  75.7835284  16.8455315
  90.8950270  74.7223515  17.1665340  86.5657463  76.2779188  23.9868899
  85.8898100  76.1773317  24.6571275  87.3885097  76.1218402  24.4504897
  78.3136322  82.5151124  16.6081415  78.8989759  81.7694812  16.7409319
  78.1161160  82.8255081  17.4918078  72.9053977  75.0856725  15.3285858
  72.9438076  74.5520315  16.1222976  72.3994269  74.5591930  14.7096835
  80.2844739  69.9321265  18.8248400  80.3486065  70.7936096  18.4125798
  80.2211859  69.3195267  18.0920759  79.7597011  72.0044398  22.4721434
  80.3869050  71.6221475  23.0858959  78.9024930  71.7858600  22.8377127
  90.1591120  82.4107373  24.0775170  90.7031024  83.0237331  23.5830125
  89.5777965  82.9686951  24.5942183  80.0656801  71.8876823  14.3867338
  79.3443387  72.5012791  14.2474811  80.8550057  72.4234588  14.3083984
  82.8683115  69.2231250  20.6607989  83.3917517  69.4693546  21.4234299
  82.6495448  70.0551285  20.2411127  84.0735660  70.1644945  18.3457660
  83.7332480  69.3652758  18.7478340  83.3674666  70.4646656  17.7734493
  84.7252132  67.2494257  16.7984983  85.5478201  66.7754736  16.6763873
  84.9690195  68.0284741  17.2983669  82.2490710  73.9413378  14.6076962
  82.1035291  74.2553681  15.5001243  81.7715914  74.5598278  14.0547860
  84.1087093  70.9315926  14.6557851  84.0948662  70.0357019  14.3190149
  84.8259521  70.9386590  15.2896137  85.9613224  71.3653266  16.7010979
  85.7031002  72.2870337  16.6995309  85.4298264  70.9683701  17.3911443
  76.7236373  76.4818722  17.5464623  76.1789841  77.2578530  17.6784897
  77.6015722  76.8289527  17.3883744  86.3815180  67.4985217  13.0612141
  86.4036876  67.5624550  12.1064121  86.7983239  66.6589725  13.2552647
  77.5102394  75.6088619  20.4394780  76.7684130  75.7571254  21.0259410
  77.1895139  75.8696884  19.5761529  82.9965069  71.3262304  24.1335354
  83.0453224  72.2024427  23.7513124  83.5387583  70.7839697  23.5606997
  93.4819914  81.8703427  23.4136491  92.6915458  81.8527566  22.8740990
  93.2453269  82.4091721  24.1685528  93.6017789  78.7195893  20.7269220
  93.6515794  78.5545901  21.6684742  93.4931713  77.8523152  20.3367100
  90.8921552  74.7026821  22.0428526  91.7931415  74.5633286  21.7512524
  90.9669526  74.8681276  22.9826704  85.2264357  72.0793676  20.8881713
  84.3567667  72.3727242  20.6164301  85.4623838  72.6634121  21.6088976
  93.3523175  76.2625449  19.4391299  93.8277296  76.4553096  18.6310150
  92.4288740  76.3184635  19.1934683  87.9303391  68.2973293  18.4047133
  88.4485335  69.0334320  18.0793622  87.5758524  68.6037286  19.2393892
  88.1815985  64.7173576  13.9248030  88.4617739  64.0496765  14.5508456
  88.9666592  64.9102671  13.4122693  92.0524843  73.1391210  17.6719605
  93.0042266  73.2389307  17.6931829  91.8828294  72.3469478  18.1817689
  90.0739223  70.2246793  17.8579006  89.4789155  70.5051806  17.1625494
  89.7888920  70.7140694  18.6295747  94.6807410  73.1508373  16.8320188
  94.1646458  72.3666829  16.6450116  95.5647358  72.8227089  16.9966707
  92.3418137  66.8949388  12.7916000  92.1442958  66.5864476  13.6759332
  92.9517842  67.6211027  12.9213930  86.2534945  79.2811128  24.2889765
  87.1737954  79.4589727  24.4829812  86.2184528  78.3367174  24.1369465
  75.4717110  74.4749722  13.2143040  75.1519894  73.6215030  12.9217414
  74.9250538  74.6898300  13.9701007  79.2497017  77.1912163  16.9312547
  79.4683027  78.1229271  16.9500580  79.6622791  76.8320137  17.7167350
  88.0991783  66.7758295  10.5412532  88.6522822  67.1953749  11.2002555
  88.3361870  65.8494043  10.5835488  84.1224883  72.7645369  26.3215295
  84.0221609  73.7139726  26.2527387  83.9046425  72.4363608  25.4491366
  75.3405370  78.0952634  15.1836162  74.6468841  77.6806586  14.6706116
  76.0878361  78.1373170  14.5869580  83.9856153  76.1942508  25.1380357
  83.5023234  76.9942868  25.3444246  84.0717092  76.2050452  24.1847801
  79.9129490  80.0847042  17.1748791  80.8672744  80.0530985  17.1078722
  79.7142014  79.6237666  17.9899017  80.5028872  78.6548158  19.7419589
  81.3221761  79.1492237  19.7654426  80.7765680  77.7380127  19.7137156
  75.7563786  72.9886292  20.4411786  76.4022650  72.4785246  20.9299011
  75.5480938  73.7254974  21.0155211  88.2817179  80.0567140  25.9403926
  89.1508338  80.2307792  25.5790561  87.8023930  80.8761557  25.8179656
  88.0919516  63.8469114  10.4481619  87.3251912  63.2927600  10.5938301
  88.5030221  63.9190982  11.3095770  80.0961277  70.1353909  24.5386800
  80.9592739  69.7790714  24.7490124  79.5226688  69.7967804  25.2262204
  92.6542778  83.5434626  25.5316771  92.2609724  82.9900825  26.2064416
  93.4708919  83.8545204  25.9223289  94.9618637  88.0937286  26.3215295
  94.8615364  89.0431643  26.2527387  94.7440179  87.7655525  25.4491366
  90.9355032  85.4645827  24.5386800  91.7986494  85.1082632  24.7490124
  90.3620443  85.1259722  25.2262204  57.6409858  13.4293742  10.8020476
  58.1849762  14.0423701  10.3075431  57.0596703  13.9873321  11.3187489
  60.9638652  12.8889797  10.1381798  60.1734196  12.8713935   9.5986297
  60.7272007  13.4278090  10.8930834  55.7635916  11.0753509  12.6649233
  56.6327076  11.2494162  12.3035868  55.2842668  11.8947926  12.5424962
  67.4228392  22.7842135   2.0694507  68.0606802  22.6648883   1.3657848
  67.3049235  23.7322979   2.1282460  64.7137881  23.8904415   7.9642238
  64.7026522  23.4957213   7.0922741  64.8758521  23.1570488   8.5576009
  61.4345143  26.6741527   6.9121422  61.1435009  27.5787158   6.7968088
  62.0702127  26.7158054   7.6265491  62.3601349  24.0518375   3.5022781
  62.9564922  23.8274398   2.7879744  62.4176321  23.3103121   4.1048229
  66.3935028  26.3602942   3.9071215  66.0935751  27.2627981   3.7987023
  66.0486087  26.0935126   4.7592368  63.8673037  20.2975128   9.5303550
  63.0906371  20.8569048   9.5206415  64.5063600  20.7831911  10.0518420
  71.6593818  17.0801921   3.3646527  71.0168198  17.3734454   2.7186321
  71.1548746  16.9654841   4.1699723  62.1219410  23.1060582   9.0921517
  62.8634094  23.6445625   8.8156341  61.4156395  23.7326870   9.2493069
  67.5974749  25.2489722   7.6893678  68.0058105  24.8072133   6.9448311
  66.8752011  24.6742350   7.9427871  63.9505819  20.1862329   5.0627235
  64.7967014  20.6101742   5.2061884  63.8904457  19.5295953   5.7565798
  67.9203564  25.8090913   1.4445967  67.2912426  25.9736627   0.7422035
  67.5329226  26.2232522   2.2156931  71.7992796  26.7445350  -1.2009669
  71.1143834  27.1244252  -1.7512636  71.8836645  27.3540677  -0.4677721
  67.1005265  17.8466697   6.7208409  66.8566196  18.6008758   6.1842685
  67.3765195  18.2252045   7.5555656  69.0543727  24.3905309   5.3985675
  69.2660623  25.0337069   4.7220056  69.0073476  23.5567626   4.9307605
  60.8580773  20.2600230   9.8936827  60.2279434  20.9416511  10.1272224
  60.7516861  20.1483311   8.9489965  70.1689555  27.2677265   3.5708032
  70.9906999  26.8657452   3.2890714  70.1651958  27.1645499   4.5224148
  63.9346159  26.8161308   5.7268742  63.9990591  27.2781715   6.5626914
  63.2257083  26.1858673   5.8551052  60.1361516  14.5620996  12.2562078
  59.7428462  14.0087194  12.9309722  60.9527656  14.8731574  12.6468596
  63.0529477  15.9778875   9.8482335  63.7939190  16.5786028   9.7686797
  63.2847400  15.2356512   9.2900377  58.1970815  21.1635242   8.1260564
  58.0824330  20.2620499   8.4267663  57.3415333  21.4098939   7.7745381
  65.2762653  29.1052982   9.7248065  64.8326507  28.3189361   9.4068969
  65.9379866  29.2932133   9.0591956  60.0349774  30.6348784   4.2508743
  60.5857199  30.5065847   3.4785737  59.1961250  30.9343673   3.9003636
  67.3743891  29.3855782   7.7529466  67.3562366  30.2064663   7.2609735
  68.2963811  29.2609857   7.9779607  63.8316945  26.8999912   8.5952974
  64.3645282  26.1388200   8.3652282  63.3031026  26.6073563   9.3377129
  70.1762504  24.2234925   1.2238833  69.5186178  24.9134186   1.3118961
  70.9802903  24.6131357   1.5672819  68.1962698  29.3961795  -1.6628265
  68.4885672  29.9566853  -2.3815899  68.7061319  29.6890356  -0.9075106
  63.1596323  30.1742146  -0.5734811  63.1172502  30.4002993  -1.5026279
  64.0759022  29.9405521  -0.4249010  66.6061957  20.6426214   6.3245818
  66.9611345  20.8697687   7.1840283  67.2534088  20.9744591   5.7023073
  72.3629074  25.8321177   2.0406418  72.7965580  25.7396466   2.8889472
  73.0760654  25.8078677   1.4026434  66.0956968  29.4323271   3.5739519
  66.1493991  30.0014207   4.3417235  65.2271750  29.6025156   3.2093556
  73.2244623  25.8744878   4.5739304  73.4180513  26.7790688   4.8198579
  73.1245241  25.4152297   5.4077889  64.8780934  15.7602768   7.0729631
  64.2308849  16.4592718   6.9794107  65.6481949  16.1938912   7.4405879
  68.2859732  26.0251620  10.1480184  68.1345238  25.7962172   9.2310268
  68.2764411  26.9822222  10.1611529  65.0545068  23.5983533   5.1326451
  65.9837128  23.7494693   4.9595418  64.6336098  23.6867554   4.2775097
  63.8533400  27.6234198   2.9024988  63.7144486  27.2552982   3.7750926
  63.0647996  28.1381837   2.7308946  65.4038615  27.0015800   0.2913826
  65.0688448  26.9616570   1.1871476  64.9042561  26.3360516  -0.1815764
  59.3782859  22.4083430   5.8166407  59.2402657  21.6763669   6.4177946
  60.2887783  22.3192330   5.5350595  62.0065160  22.1203390   5.3050087
  62.7164778  21.4796582   5.2636705  61.9634468  22.3716284   6.2276268
  69.9951938  29.0570743   8.2256666  69.9364485  28.3729963   7.5587249
  70.3971457  29.7989733   7.7737292  60.7194094  19.1068607   7.1245726
  60.1831451  18.6559346   7.7767323  60.1310802  19.2414516   6.3816191
  59.0142637  35.8732657   1.0190385  59.2539235  36.5051181   1.6969404
  58.1711834  35.5220697   1.3055744  69.9969346  27.0210327   6.4570646
  69.1096124  26.6836249   6.5797045  70.5667897  26.2893358   6.6939411
  63.5270499  31.6811779   3.4231889  63.4540671  32.4866751   3.9351194
  63.0847892  31.8803745   2.5979910  65.9869183  31.5798613   5.5790048
  66.6997155  32.2146078   5.5065949  65.4959211  31.6762479   4.7630050
  61.0381096  29.3293057   6.3995619  61.7390556  29.9629540   6.5525013
  60.5676211  29.6707788   5.6391258  68.8382382  21.8837664   4.2248169
  68.1853832  22.1313572   3.5700622  69.2162762  21.0701802   3.8910646
  65.7989556  31.9197357  -1.6723661  65.9811950  31.1019013  -1.2095909
  66.6222542  32.1365050  -2.1098771  64.8869955  22.6257475  10.7114206
  64.2110592  22.5251605  11.3816581  65.7097589  22.4696689  11.1750203
  56.6348814  28.8629412   3.3326721  57.2202251  28.1173100   3.4654625
  56.4373653  29.1733368   4.2163385  63.6292738  33.9324403   4.9471822
  64.1811046  34.0956024   5.7120907  63.9698931  34.5228840   4.2751847
  58.0809504  18.3522685   9.1966741  58.7081543  17.9699762   9.8104265
  57.2237423  18.1336887   9.5622433  68.4803612  28.7585660  10.8020476
  69.0243516  29.3715618  10.3075431  67.8990457  29.3165239  11.3187489
  66.7661125  31.8806378   1.9335504  66.6412265  31.0796118   1.4246450
  67.4240216  32.3752572   1.4449474  68.8296034  29.6815398   3.5615054
  67.8826369  29.5620749   3.4893381  69.1778807  28.7937896   3.6441316
  65.8342467  29.4768114  -0.2380594  65.6867429  28.5484822  -0.0573024
  66.6595960  29.4988205  -0.7223518  69.4376589  30.2996673   0.8484279
  70.3623136  30.0939535   0.7108730  69.2691892  30.0513074   1.7573621
  55.8314887  21.9566906   7.1640086  55.0896623  22.1049541   7.7504717
  55.5107631  22.2175172   6.3006836  63.7758549  31.4982884   6.9620476
  64.0845676  31.2532031   7.8343176  64.5734031  31.7029523   6.4739347
  63.7979161  33.6520794  -0.8074147  63.3584152  33.1597173  -0.1141290
  64.5487278  33.1093762  -1.0482072  61.2453033  29.1958803   1.2648155
  60.6233043  28.5329508   0.9650382  61.9157900  29.2219935   0.5821802
  61.3177561  17.6740591  10.8580661  61.3665716  18.5502714  10.4758430
  61.8600075  17.1317984  10.2852304  71.8032407  28.2181714  10.1381798
  71.0127950  28.2005853   9.5986297  71.5665761  28.7570008  10.8930834
  71.9230282  25.0674181   7.4514526  71.9728287  24.9024188   8.3930049
  71.8144205  24.2001440   7.0612407  69.2134044  21.0505109   8.7673833
  70.1143907  20.9111573   8.4757831  69.2882019  21.2159563   9.7072010
  63.5476849  18.4271963   7.6127019  62.6780159  18.7205529   7.3409608
  63.7836330  19.0112408   8.3334283  73.4248479  27.4871122   7.6956548
  73.1333287  27.8501103   8.5320009  72.8120610  26.7738130   7.5169880
  71.6735667  22.6103737   6.1636606  72.1489788  22.8031383   5.3555457
  70.7501232  22.6662923   5.9179989  70.3737336  19.4869497   4.3964911
  71.3254759  19.5867594   4.4177135  70.2040786  18.6947765   4.9062996
  72.8525414  22.7075617   3.5107211  72.8201734  21.7691617   3.6966895
  73.4626037  22.7859653   2.7773036  73.0019902  19.4986660   3.5565494
  72.4858951  18.7145117   3.3695423  73.8859851  19.1705377   3.7212014
  64.5747437  25.6289416  11.0135072  65.4950446  25.8068015  11.2075118
  64.5397020  24.6845461  10.8614771  62.4437375  19.1123656  13.0460602
  62.3434102  20.0618013  12.9772693  62.2258917  18.7841895  12.1736672
  62.3068645  22.5420795  11.8625664  61.8235727  23.3421155  12.0689553
  62.3929584  22.5528740  10.9093108  58.2341982  26.4325330   3.8994098
  59.1885236  26.4009272   3.8324029  58.0354506  25.9715953   4.7144323
  58.8241364  25.0026446   6.4664895  59.6434253  25.4970524   6.4899732
  59.0978172  24.0858414   6.4382463  59.7461337  32.8714266   1.1282738
  59.6293721  33.8159699   1.0261428  58.9253783  32.5687828   1.5168537
  66.6029671  26.4045427  12.6649233  67.4720831  26.5786079  12.3035868
  66.1236422  27.2239844  12.5424962  60.7715851  33.5242528   4.3438666
  61.6743098  33.5566138   4.6605161  60.5453221  32.5942979   4.3585002
  62.5269453  32.2773515   1.0048745  61.5765084  32.2775376   0.8913117
  62.8301939  31.5306249   0.4884780  58.4173770  16.4832197  11.2632106
  59.2805231  16.1269001  11.4735431  57.8439180  16.1446091  11.9507511
  78.2622147  38.1134053   2.0694507  78.9000557  37.9940800   1.3657848
  78.1442990  39.0614897   2.1282460  75.0711853  38.0661481   2.0056032
  74.7330364  37.9502546   1.1176567  75.9401621  37.6652646   1.9857038
  70.9298669  39.9196957  -2.0047077  70.3663534  39.8286894  -2.7730789
  70.8151064  39.0996862  -1.5244584  75.5531636  39.2196333   7.9642238
  75.5420277  38.8249131   7.0922741  75.7152275  38.4862405   8.5576009
  68.4763101  41.4148149   0.8337144  69.2684392  41.0738974   0.4183443
  68.7159751  41.5243124   1.7539297  76.5098227  43.5867925  -6.6932612
  75.8586207  44.1722006  -7.0798598  77.3042590  44.1174120  -6.6337575
  70.4353855  40.6757062  -6.2945478  71.2084731  40.1286049  -6.4332602
  70.7879253  41.5401312  -6.0831016  72.2738897  42.0033445   6.9121422
  71.9828763  42.9079075   6.7968088  72.9095881  42.0449972   7.6265491
  73.1995104  39.3810293   3.5022781  73.7958676  39.1566315   2.7879744
  73.2570075  38.6395039   4.1048229  77.8163415  35.8385507  -0.8552284
  78.6026504  35.4204930  -1.2061867  78.0802119  36.7431599  -0.6870636
  72.4916421  38.7377834  -6.4602653  72.3752679  38.0622738  -5.7921568
  72.6018681  38.2510208  -7.2770500  74.8347962  38.1987981  -2.7555964
  74.4706169  37.6718602  -2.0443042  75.6915078  37.8086451  -2.9289478
  80.7397263  29.4882314   4.5075303  80.4080587  30.3577725   4.2836518
  80.1442876  29.1718598   5.1869333  77.2328782  41.6894860   3.9071215
  76.9329505  42.5919899   3.7987023  76.8879842  41.4227043   4.7592368
  70.6841264  38.1408657  -0.0592080  69.7591760  38.0084871   0.1485612
  70.9325677  38.9202876   0.4377862  80.6325926  34.2077400   1.5868653
  79.7242803  34.1392809   1.2927414  80.5813522  34.6849345   2.4150478
  68.0450075  37.7841930   0.7751709  68.1742456  38.0376409   1.6891121
  67.3647526  38.3769638   0.4556364  72.2149562  48.4539180  -3.1257817
  72.1373592  49.4047005  -3.0469336  71.6111206  48.1085053  -2.4682891
  74.7066792  35.6267046   9.5303550  73.9300126  36.1860966   9.5206415
  75.3457355  36.1123829  10.0518420  82.4987572  32.4093839   3.3646527
  81.8561953  32.7026372   2.7186321  81.9942501  32.2946759   4.1699723
  72.9613164  38.4352499   9.0921517  73.7027848  38.9737543   8.8156341
  72.2550150  39.0618788   9.2493069  78.4368504  40.5781640   7.6893678
  78.8451860  40.1364050   6.9448311  77.7145765  40.0034267   7.9427871
  74.7899574  35.5154246   5.0627235  75.6360769  35.9393660   5.2061884
  74.7298211  34.8587871   5.7565798  78.7597318  41.1382830   1.4445967
  78.1306181  41.3028544   0.7422035  78.3722980  41.5524440   2.2156931
  82.6386550  42.0737268  -1.2009669  81.9537588  42.4536169  -1.7512636
  82.7230400  42.6832595  -0.4677721  77.9399019  33.1758615   6.7208409
  77.6959951  33.9300675   6.1842685  78.2158950  33.5543962   7.5555656
  79.8937482  39.7197227   5.3985675  80.1054377  40.3628987   4.7220056
  79.8467230  38.8859544   4.9307605  77.4963711  32.3315048   2.3022247
  76.6348190  32.6296301   2.5938984  77.5226145  32.5485447   1.3703279
  74.3125280  40.8757238  -1.2903948  74.7763626  41.1544941  -2.0799325
  74.0482078  39.9740683  -1.4730857  71.2049361  40.4228720   1.6475816
  71.7750718  40.8515988   1.0093300  71.7957473  40.1411305   2.3460001
  73.2494166  36.9980391  -4.4814382  73.9518210  37.4501434  -4.0140456
  72.9174795  36.3564210  -3.8534489  71.6974528  35.5892147   9.8936827
  71.0673188  36.2708428  10.1272224  71.5910616  35.4775229   8.9489965
  66.9919500  35.2563943   0.8202751  66.2018554  35.5121472   0.3442862
  67.4830748  36.0712281   0.9254792  81.0083310  42.5969183   3.5708032
  81.8300753  42.1949370   3.2890714  81.0045713  42.4937417   4.5224148
  68.9434246  35.6208523  -2.2213772  68.1465409  35.7327217  -1.7030277
  68.7159838  35.9595175  -3.0872882  74.7739913  42.1453226   5.7268742
  74.8384346  42.6073633   6.5626914  74.0650837  41.5150591   5.8551052
  65.2757203  35.5094434   3.2517742  65.5265242  36.3941444   3.5175318
  65.8116752  35.3299035   2.4792834  74.4887931  43.8121333  -4.4052277
  74.3533606  44.6572869  -3.9767429  75.0297743  44.0140611  -5.1686343
  70.9755271  29.8912913  12.2562078  70.5822216  29.3379112  12.9309722
  71.7921411  30.2023492  12.6468596  67.9417328  41.3296771  -3.8324352
  68.4541849  42.1240022  -3.6818787  68.5940041  40.6323062  -3.8990751
  69.7512213  44.4462528  -1.7501599  69.9278841  45.3680492  -1.9380615
  70.5469046  44.1320947  -1.3207219  73.8923232  31.3070792   9.8482335
  74.6332945  31.9077945   9.7686797  74.1241154  30.5648430   9.2900377
  76.1156407  44.4344900   9.7248065  75.6720261  43.6481278   9.4068969
  76.7773621  44.6224050   9.0591956  70.8743528  45.9640701   4.2508743
  71.4250954  45.8357765   3.4785737  70.0355004  46.2635590   3.9003636
  78.2137645  44.7147700   7.7529466  78.1956121  45.5356581   7.2609735
  79.1357565  44.5901775   7.9779607  74.6710699  42.2291829   8.5952974
  75.2039036  41.4680117   8.3652282  74.1424781  41.9365481   9.3377129
  77.8380394  27.3351895   4.1246616  77.4944664  28.2253537   4.0485727
  78.2059357  27.1453553   3.2616201  65.9066245  39.6585426  -3.0564782
  66.7441467  40.0682434  -3.2731074  66.0844513  38.7184868  -3.0864588
  76.9176935  29.7056550   2.0895849  76.4141730  29.6686686   1.2763655
  77.2107542  30.6149293   2.1492506  73.1619821  29.7895280   1.0962031
  74.0272817  29.5938089   0.7367921  73.2297330  29.5605632   2.0231388
  76.0363412  41.3577822  -3.8928213  75.5084774  40.6230581  -4.2054976
  75.5350915  42.1352498  -4.1388245  81.0156258  39.5526842   1.2238833
  80.3579933  40.2426104   1.3118961  81.8196657  39.9423274   1.5672819
  70.7682140  32.0197488  -1.5321602  71.3425892  31.7972670  -2.2648409
  71.3553122  32.0886183  -0.7793001  79.8261717  37.9071215  -0.7257225
  80.3393599  38.5401207  -0.2235516  80.4762941  37.3072410  -1.0913865
  76.3042548  35.3820670   1.5201115  75.3865109  35.6035618   1.3622803
  76.7202691  35.4566981   0.6612822  77.0877596  36.7812086  -3.3496205
  77.8349415  37.2933483  -3.6589083  77.3569185  36.4596139  -2.4891811
  75.3604246  39.2770627  -6.3669250  74.4515465  38.9929660  -6.2696781
  75.3899330  39.6969705  -7.2265944  80.5923513  42.8877216  -2.5978083
  80.1385840  42.0468126  -2.5412892  79.9617480  43.5238615  -2.2603303
  79.0356452  44.7253713  -1.6628265  79.3279427  45.2858770  -2.3815899
  79.5455073  45.0182274  -0.9075106  65.9292416  36.9976141  -2.3854048
  65.7316816  36.4045502  -3.1102982  65.3739080  36.6928351  -1.6678109
  73.9089140  36.8899247  -0.2659455  73.9637750  35.9373084  -0.3416978
  73.0980342  37.0458687   0.2181843  71.8481500  35.5076307  -2.5069076
  71.0349365  35.8070478  -2.1003884  72.3440494  35.1131996  -1.7894594
  73.9990078  45.5034064  -0.5734811  73.9566256  45.7294910  -1.5026279
  74.9152777  45.2697439  -0.4249010  77.4455711  35.9718132   6.3245818
  77.8005099  36.1989605   7.1840283  78.0927843  36.3036509   5.7023073
  71.3395575  33.0794663   3.1092159  71.9794954  32.9383422   2.4115122
  70.5073105  32.7929176   2.7330761  83.2022828  41.1613095   2.0406418
  83.6359335  41.0688384   2.8889472  83.9154409  41.1370595   1.4026434
  72.1155878  42.3797093  -0.7772849  72.9096477  41.8847413  -0.9790274
  71.4047571  41.8514956  -1.1405143  76.9350723  44.7615189   3.5739519
  76.9887745  45.3306125   4.3417235  76.0665504  44.9317074   3.2093556
  68.4238642  36.5240175  -4.7013096  67.4936230  36.4624630  -4.4843134
  68.5196114  36.0016128  -5.4976455  68.3424191  33.0494988  -2.1134854
  68.6031008  33.9640321  -2.2225694  69.1641363  32.5819430  -1.9638242
  69.8149116  34.4632745   5.0563970  70.4872170  34.2550107   4.4076619
  68.9878903  34.2654831   4.6169202  84.0638378  41.2036795   4.5739304
  84.2574268  42.1082606   4.8198579  83.9638996  40.7444214   5.4077889
  75.7174688  31.0894686   7.0729631  75.0702603  31.7884636   6.9794107
  76.4875704  31.5230830   7.4405879  79.1253486  41.3543538  10.1480184
  78.9738993  41.1254090   9.2310268  79.1158166  42.3114139  10.1611529
  75.8938823  38.9275451   5.1326451  76.8230883  39.0786610   4.9595418
  75.4729853  39.0159472   4.2775097  74.6927154  42.9526115   2.9024988
  74.5538240  42.5844900   3.7750926  73.9041751  43.4673755   2.7308946
  76.2432370  42.3307718   0.2913826  75.9082202  42.2908488   1.1871476
  75.7436315  41.6652434  -0.1815764  70.2176614  37.7375348   5.8166407
  70.0796411  37.0055587   6.4177946  71.1281537  37.6484248   5.5350595
  72.8458914  37.4495307   5.3050087  73.5558533  36.8088499   5.2636705
  72.8028222  37.7008202   6.2276268  80.8345693  44.3862661   8.2256666
  80.7758239  43.7021881   7.5587249  81.2365211  45.1281651   7.7737292
  71.5587848  34.4360525   7.1245726  71.0225205  33.9851264   7.7767323
  70.9704557  34.5706434   6.3816191  69.8536392  51.2024574   1.0190385
  70.0932990  51.8343099   1.6969404  69.0105588  50.8512614   1.3055744
  80.8363100  42.3502245   6.4570646  79.9489879  42.0128166   6.5797045
  81.4061651  41.6185276   6.6939411  62.4892247  38.6826336  -0.2186303
  63.1763287  38.3688066  -0.8065287  62.3340376  39.5867701  -0.4919051
  67.2926969  33.5716533   4.2098721  67.2085158  32.9642202   3.4749131
  66.4709676  34.0625551   4.2108217  74.3664254  47.0103697   3.4231889
  74.2934425  47.8158668   3.9351194  73.9241647  47.2095663   2.5979910
  74.1554033  46.2475467  -3.0665289  73.3721555  46.7897147  -2.9727065
  74.8546778  46.7649447  -2.6671048  76.8262937  46.9090531   5.5790048
  77.5390909  47.5437996   5.5065949  76.3352966  47.0054397   4.7630050
  78.5480464  40.8141784  -2.8492661  77.6136743  40.9343246  -3.0187956
  78.7257132  39.9114250  -3.1132651  74.0485652  34.1987479  -0.6959399
  73.6783440  33.6458520  -0.0078494  74.5444744  33.5945613  -1.2484399
  71.8774851  44.6584974   6.3995619  72.5784310  45.2921457   6.5525013
  71.4069966  44.9999706   5.6391258  80.0029246  43.0002924  -5.3156474
  80.2789090  42.8859519  -4.4062600  79.1333745  42.6020409  -5.3544301
  79.6776137  37.2129582   4.2248169  79.0247587  37.4605489   3.5700622
  80.0556516  36.3993720   3.8910646  76.6383310  47.2489275  -1.6723661
  76.8205705  46.4310931  -1.2095909  77.4616296  47.4656967  -2.1098771
  76.9725476  46.1757460  -4.4108612  77.5013242  45.6649915  -5.0238450
  77.2353696  45.8599990  -3.5463079  75.7263710  37.9549393  10.7114206
  75.0504347  37.8543522  11.3816581  76.5491343  37.7988607  11.1750203
  67.4742569  44.1921329   3.3326721  68.0596005  43.4465017   3.4654625
  67.2767407  44.5025286   4.2163385  70.3281224  47.2272577  -1.6510836
  69.6591599  47.7118704  -2.1346796  70.1894094  47.4741797  -0.7367458
  62.0660223  36.7626930   2.0531164  62.1044323  36.2290520   2.8468282
  61.5600516  36.2362135   1.4342142  74.4686492  49.2616320   4.9471822
  75.0204800  49.4247942   5.7120907  74.8092686  49.8520758   4.2751847
  69.4450986  31.6091470   5.5493707  69.5092312  32.4706301   5.1371104
  69.3818106  30.9965472   4.8166065  68.9203258  33.6814603   9.1966741
  69.5475297  33.2991680   9.8104265  68.0631177  33.4628805   9.5622433
  79.3197367  44.0877578  10.8020476  79.8637271  44.7007536  10.3075431
  78.7384212  44.6457156  11.3187489  65.6968801  35.4891032  -4.8714904
  65.9922242  34.5801710  -4.9247851  64.7956837  35.4678771  -5.1933902
  77.6054880  47.2098296   1.9335504  77.4806019  46.4088036   1.4246450
  78.2633971  47.7044489   1.4449474  69.2263048  33.5647028   1.1112644
  68.5049634  34.1782996   0.9720118  70.0156304  34.1004793   1.0329290
  79.6689788  45.0107316   3.5615054  78.7220124  44.8912667   3.4893381
  80.0172561  44.1229814   3.6441316  72.0289361  30.9001455   7.3853296
  72.5523763  31.1463751   8.1479605  71.8101695  31.7321490   6.9656433
  76.6736221  44.8060032  -0.2380594  76.5261184  43.8776740  -0.0573024
  77.4989715  44.8280123  -0.7223518  70.5398466  33.4578099  -4.3800101
  70.8794538  33.9864020  -5.1021493  70.9870586  33.7958505  -3.6041535
  80.2770343  45.6288591   0.8484279  81.2016891  45.4231452   0.7108730
  80.1085647  45.3804992   1.7573621  73.2341907  31.8415150   5.0702967
  72.8938727  31.0422963   5.4723647  72.5280913  32.1416861   4.4979800
  73.8858378  28.9264462   3.5230290  74.7084448  28.4524941   3.4009180
  74.1296442  29.7054946   4.0228976  71.4096957  35.6183583   1.3322268
  71.2641538  35.9323886   2.2246550  70.9322161  36.2368483   0.7793167
  73.2693340  32.6086131   1.3803158  73.2554909  31.7127224   1.0435456
  73.9865768  32.6156795   2.0141444  75.1219471  33.0423471   3.4256285
  74.8637249  33.9640542   3.4240616  74.5904511  32.6453906   4.1156749
  80.0665659  46.1474258  -3.7953629  80.2402537  45.5820681  -4.5479777
  80.5594551  46.9475153  -3.9774139  65.8842619  38.1588927   4.2709929
  65.3396087  38.9348735   4.4030204  66.7621969  38.5059732   4.1129051
  72.6730236  31.4900511  -3.3509272  72.7946147  30.5617157  -3.1518385
  72.3832278  31.5039197  -4.2630957  66.6708641  37.2858824   7.1640086
  65.9290377  37.4341459   7.7504717  66.3501385  37.5467089   6.3006836
  74.6152304  46.8274802   6.9620476  74.9239430  46.5823949   7.8343176
  75.4127786  47.0321440   6.4739347  74.6372916  48.9812712  -0.8074147
  74.1977906  48.4889090  -0.1141290  75.3881033  48.4385679  -1.0482072
  67.1165255  45.1724252  -0.8049519  67.9423275  44.8728024  -1.1850876
  66.7659307  44.4031875  -0.3559730  72.0846788  44.5250721   1.2648155
  71.4626797  43.8621426   0.9650382  72.7551655  44.5511853   0.5821802
  65.3173860  43.0910579   0.1539415  64.4805768  42.6632753  -0.0276584
  65.2897505  43.2843022   1.0910206  72.1571315  33.0032509  10.8580661
  72.2059471  33.8794631  10.4758430  72.6993830  32.4609902  10.2852304
  82.6426161  43.5473632  10.1381798  81.8521705  43.5297771   9.5986297
  82.4059516  44.0861926  10.8930834  82.7624036  40.3966098   7.4514526
  82.8122041  40.2316106   8.3930049  82.6537960  39.5293357   7.0612407
  71.6460295  43.0754644  -5.2593385  71.7948415  43.7590108  -5.9126712
  72.4526738  43.0559734  -4.7443929  80.0527799  36.3797026   8.7673833
  80.9537661  36.2403491   8.4757831  80.1275773  36.5451481   9.7072010
  74.3870604  33.7563881   7.6127019  73.5173913  34.0497447   7.3409608
  74.6230084  34.3404326   8.3334283  84.2642233  42.8163040   7.6956548
  83.9727041  43.1793020   8.5320009  83.6514364  42.1030048   7.5169880
  82.5129421  37.9395654   6.1636606  82.9883543  38.1323301   5.3555457
  81.5894987  37.9954840   5.9179989  69.4012928  39.1019822  -4.2532316
  69.1558970  38.1982152  -4.0552106  69.5708842  39.1036972  -5.1952838
  77.0909638  29.9743498   5.1292440  77.6091582  30.7104525   4.8038928
  76.7364771  30.2807491   5.9639199  81.2131090  34.8161414   4.3964911
  82.1648513  34.9159512   4.4177135  81.0434541  34.0239683   4.9062996
  79.2345470  31.9016998   4.5824312  78.6395402  32.1822010   3.8870801
  78.9495166  32.3910899   5.3541053  83.6919168  38.0367534   3.5107211
  83.6595488  37.0983535   3.6966895  84.3019792  38.1151571   2.7773036
  83.8413657  34.8278578   3.5565494  83.3252705  34.0437034   3.3695423
  84.7253605  34.4997294   3.7212014  75.4141191  40.9581333  11.0135072
  76.3344201  41.1359932  11.2075118  75.3790774  40.0137379  10.8614771
  64.6323356  36.1519927  -0.0611653  64.3126141  35.2985235  -0.3537279
  64.0856785  36.3668505   0.6946314  68.4103264  38.8682368   3.6557853
  68.6289274  39.7999476   3.6745887  68.8229038  38.5090342   4.4412657
  73.2831129  34.4415574  13.0460602  73.1827856  35.3909931  12.9772693
  73.0652671  34.1133813  12.1736672  64.5011616  39.7722838   1.9081468
  63.8075088  39.3576791   1.3951423  65.2484607  39.8143375   1.3114887
  73.1462399  37.8712713  11.8625664  72.6629481  38.6713073  12.0689553
  73.2323338  37.8820657  10.9093108  66.4148359  39.7041092  -0.2152517
  66.3919047  39.8028780  -1.1670634  66.7248995  40.5506243   0.1064649
  69.0735737  41.7617247   3.8994098  70.0278990  41.7301190   3.8324029
  68.8748260  41.3007871   4.7144323  69.6635119  40.3318363   6.4664895
  70.4828008  40.8262442   6.4899732  69.9371927  39.4150331   6.4382463
  67.4285966  47.3036867   0.9164295  67.2940434  46.5437268   0.3502293
  67.0118028  48.0277767   0.4493084  70.5855092  48.2006184   1.1282738
  70.4687476  49.1451616   1.0261428  69.7647538  47.8979745   1.5168537
  64.9170033  34.6656497   7.1657092  65.5628897  34.1555451   7.6544317
  64.7087184  35.4025179   7.7400517  77.4423425  41.7337345  12.6649233
  78.3114585  41.9077997  12.3035868  76.9630177  42.5531761  12.5424962
  71.6109606  48.8534446   4.3438666  72.5136852  48.8858056   4.6605161
  71.3846976  47.9234897   4.3585002  73.3663208  47.6065432   1.0048745
  72.4158839  47.6067294   0.8913117  73.6695694  46.8598167   0.4884780
  69.2567524  31.8124114  11.2632106  70.1198986  31.4560919  11.4735431
  68.6832935  31.4738009  11.9507511  86.3925390  54.5488250   7.9642238
  86.3814031  54.1541049   7.0922741  86.5546030  53.8154323   8.5576009
  83.1132652  57.3325362   6.9121422  82.8222518  58.2370993   6.7968088
  83.7489636  57.3741890   7.6265491  84.0388858  54.7102211   3.5022781
  84.6352431  54.4858233   2.7879744  84.0963830  53.9686956   4.1048229
  91.5791017  44.8174232   4.5075303  91.2474342  45.6869643   4.2836518
  90.9836631  44.5010516   5.1869333  78.8843829  53.1133848   0.7751709
  79.0136210  53.3668327   1.6891121  78.2041280  53.7061556   0.4556364
  85.5460546  50.9558964   9.5303550  84.7693880  51.5152884   9.5206415
  86.1851109  51.4415746  10.0518420  93.3381327  47.7385756   3.3646527
  92.6955707  48.0318289   2.7186321  92.8336255  47.6238677   4.1699723
  83.8006919  53.7644417   9.0921517  84.5421603  54.3029461   8.8156341
  83.0943904  54.3910706   9.2493069  89.2762258  55.9073557   7.6893678
  89.6845614  55.4655968   6.9448311  88.5539520  55.3326185   7.9427871
  85.6293328  50.8446164   5.0627235  86.4754523  51.2685578   5.2061884
  85.5691966  50.1879788   5.7565798  88.7792774  48.5050532   6.7208409
  88.5353705  49.2592593   6.1842685  89.0552704  48.8835880   7.5555656
  88.3357465  47.6606965   2.3022247  87.4741944  47.9588219   2.5938984
  88.3619900  47.8777364   1.3703279  82.5368282  50.9184065   9.8936827
  81.9066943  51.6000346  10.1272224  82.4304370  50.8067147   8.9489965
  77.8313255  50.5855861   0.8202751  77.0412309  50.8413390   0.3442862
  78.3224502  51.4004199   0.9254792  85.6133668  57.4745144   5.7268742
  85.6778100  57.9365551   6.5626914  84.9044592  56.8442508   5.8551052
  76.1150958  50.8386352   3.2517742  76.3658996  51.7233361   3.5175318
  76.6510506  50.6590953   2.4792834  81.8149025  45.2204831  12.2562078
  81.4215971  44.6671029  12.9309722  82.6315165  45.5315409  12.6468596
  84.7316986  46.6362710   9.8482335  85.4726699  47.2369863   9.7686797
  84.9634909  45.8940348   9.2900377  79.8758324  51.8219077   8.1260564
  79.7611839  50.9204334   8.4267663  79.0202842  52.0682774   7.7745381
  86.9550162  59.7636818   9.7248065  86.5114016  58.9773196   9.4068969
  87.6167375  59.9515968   9.0591956  85.5104454  57.5583747   8.5952974
  86.0432791  56.7972035   8.3652282  84.9818535  57.2657399   9.3377129
  88.6774149  42.6643813   4.1246616  88.3338418  43.5545455   4.0485727
  89.0453112  42.4745471   3.2616201  87.7570689  45.0348468   2.0895849
  87.2535485  44.9978603   1.2763655  88.0501296  45.9441211   2.1492506
  84.0013575  45.1187198   1.0962031  84.8666572  44.9230006   0.7367921
  84.0691084  44.8897550   2.0231388  81.6075894  47.3489406  -1.5321602
  82.1819646  47.1264587  -2.2648409  82.1946877  47.4178100  -0.7793001
  88.2849466  51.3010049   6.3245818  88.6398854  51.5281523   7.1840283
  88.9321597  51.6328426   5.7023073  82.1789329  48.4086580   3.1092159
  82.8188708  48.2675340   2.4115122  81.3466860  48.1221094   2.7330761
  79.1817945  48.3786905  -2.1134854  79.4424763  49.2932239  -2.2225694
  80.0035118  47.9111348  -1.9638242  80.6542871  49.7924663   5.0563970
  81.3265924  49.5842025   4.4076619  79.8272657  49.5946749   4.6169202
  86.5568443  46.4186604   7.0729631  85.9096358  47.1176553   6.9794107
  87.3269458  46.8522747   7.4405879  89.9647241  56.6835456  10.1480184
  89.8132747  56.4546007   9.2310268  89.9551920  57.6406057  10.1611529
  86.7332577  54.2567368   5.1326451  87.6624637  54.4078528   4.9595418
  86.3123607  54.3451389   4.2775097  81.0570368  53.0667266   5.8166407
  80.9190166  52.3347504   6.4177946  81.9675291  52.9776166   5.5350595
  83.6852669  52.7787225   5.3050087  84.3952287  52.1380417   5.2636705
  83.6421977  53.0300120   6.2276268  82.3981603  49.7652443   7.1245726
  81.8618960  49.3143181   7.7767323  81.8098311  49.8998352   6.3816191
  73.3286002  54.0118254  -0.2186303  74.0157042  53.6979984  -0.8065287
  73.1734130  54.9159619  -0.4919051  78.1320724  48.9008450   4.2098721
  78.0478913  48.2934120   3.4749131  77.3103430  49.3917469   4.2108217
  82.7168605  59.9876892   6.3995619  83.4178065  60.6213375   6.5525013
  82.2463720  60.3291624   5.6391258  90.5169891  52.5421499   4.2248169
  89.8641341  52.7897407   3.5700622  90.8950271  51.7285638   3.8910646
  86.5657464  53.2841311  10.7114206  85.8898101  53.1835440  11.3816581
  87.3885098  53.1280524  11.1750203  78.3136323  59.5213247   3.3326721
  78.8989760  58.7756935   3.4654625  78.1161162  59.8317204   4.2163385
  72.9053978  52.0918847   2.0531164  72.9438077  51.5582438   2.8468282
  72.3994271  51.5654053   1.4342142  80.2844740  46.9383388   5.5493707
  80.3486067  47.7998219   5.1371104  80.2211860  46.3257389   4.8166065
  79.7597013  49.0106520   9.1966741  80.3869052  48.6283598   9.8104265
  78.9024932  48.7920722   9.5622433  90.1591121  59.4169495  10.8020476
  90.7031025  60.0299454  10.3075431  89.5777966  59.9749074  11.3187489
  80.0656802  48.8938946   1.1112644  79.3443388  49.5074914   0.9720118
  80.8550058  49.4296711   1.0329290  82.8683116  46.2293373   7.3853296
  83.3917518  46.4755669   8.1479605  82.6495449  47.0613407   6.9656433
  84.0735661  47.1707068   5.0702967  83.7332481  46.3714881   5.4723647
  83.3674667  47.4708778   4.4979800  84.7252133  44.2556380   3.5230290
  85.5478202  43.7816858   3.4009180  84.9690196  45.0346864   4.0228976
  82.2490712  50.9475501   1.3322268  82.1035292  51.2615804   2.2246550
  81.7715915  51.5660401   0.7793167  84.1087094  47.9378049   1.3803158
  84.0948663  47.0419142   1.0435456  84.8259523  47.9448712   2.0141444
  85.9613225  48.3715389   3.4256285  85.7031003  49.2932460   3.4240616
  85.4298266  47.9745823   4.1156749  76.7236374  53.4880845   4.2709929
  76.1789842  54.2640653   4.4030204  77.6015724  53.8351650   4.1129051
  77.5102396  52.6150741   7.1640086  76.7684132  52.7633377   7.7504717
  77.1895140  52.8759007   6.3006836  82.9965070  48.3324426  10.8580661
  83.0453225  49.2086549  10.4758430  83.5387584  47.7901819  10.2852304
  93.4819916  58.8765550  10.1381798  92.6915459  58.8589688   9.5986297
  93.2453270  59.4153843  10.8930834  93.6017791  55.7258016   7.4514526
  93.6515796  55.5608023   8.3930049  93.4931714  54.8585275   7.0612407
  90.8921553  51.7088944   8.7673833  91.7931416  51.5695409   8.4757831
  90.9669528  51.8743399   9.7072010  85.2264358  49.0855799   7.6127019
  84.3567668  49.3789365   7.3409608  85.4623839  49.6696244   8.3334283
  93.3523176  53.2687572   6.1636606  93.8277297  53.4615218   5.3555457
  92.4288741  53.3246758   5.9179989  87.9303392  45.3035416   5.1292440
  88.4485336  46.0396443   4.8038928  87.5758525  45.6099409   5.9639199
  92.0524845  50.1453332   4.3964911  93.0042268  50.2451430   4.4177135
  91.8828295  49.3531601   4.9062996  90.0739224  47.2308915   4.5824312
  89.4789156  47.5113928   3.8870801  89.7888921  47.7202816   5.3541053
  94.6807411  50.1570495   3.5565494  94.1646460  49.3728952   3.3695423
  95.5647360  49.8289212   3.7212014  86.2534946  56.2873251  11.0135072
  87.1737955  56.4651850  11.2075118  86.2184529  55.3429296  10.8614771
  75.4717111  51.4811845  -0.0611653  75.1519895  50.6277153  -0.3537279
  74.9250539  51.6960423   0.6946314  79.2497018  54.1974286   3.6557853
  79.4683028  55.1291393   3.6745887  79.6622792  53.8382260   4.4412657
  84.1224884  49.7707491  13.0460602  84.0221611  50.7201848  12.9772693
  83.9046426  49.4425730  12.1736672  75.3405371  55.1014756   1.9081468
  74.6468842  54.6868709   1.3951423  76.0878362  55.1435293   1.3114887
  83.9856154  53.2004630  11.8625664  83.5023236  54.0004990  12.0689553
  84.0717093  53.2112575  10.9093108  79.9129491  57.0909165   3.8994098
  80.8672745  57.0593107   3.8324029  79.7142015  56.6299789   4.7144323
  80.5028873  55.6610281   6.4664895  81.3221762  56.1554360   6.4899732
  80.7765681  54.7442249   6.4382463  75.7563788  49.9948415   7.1657092
  76.4022651  49.4847369   7.6544317  75.5480939  50.7317096   7.7400517
  88.2817180  57.0629262  12.6649233  89.1508340  57.2369915  12.3035868
  87.8023931  57.8823679  12.5424962  80.0961279  47.1416032  11.2632106
  80.9592740  46.7852837  11.4735431  79.5226689  46.8029927  11.9507511
  92.6542779  60.5496749  12.2562078  92.2609725  59.9962947  12.9309722
  93.4708920  60.8607327  12.6468596  94.9618638  65.0999409  13.0460602
  94.8615365  66.0493766  12.9772693  94.7440180  64.7717648  12.1736672
  90.9355033  62.4707950  11.2632106  91.7986495  62.1144754  11.4735431
  90.3620444  62.1321844  11.9507511   2.3839261  77.2637730  66.2966467
   1.6302969  76.6945128  66.1410472   2.5186802  77.2300394  67.2437102
   2.7945676  77.4213340  69.0286711   3.5249064  77.1598628  69.5894415
   2.1852621  76.6842062  69.0688779   1.9407127  89.4907223  65.5221179
   2.7270217  89.0726646  65.1711596   2.2045832  90.3953315  65.6902828
   7.3415555  89.4282456  66.4254158   8.0740726  88.8581673  66.6591987
   6.5854910  89.0404057  66.8660663   4.8640975  83.1404030  70.8848766
   4.5324300  84.0099441  70.6609981   4.2686588  82.8240314  71.5642797
   4.7569638  87.8599117  67.9642116   3.8486516  87.7914525  67.6700877
   4.7057234  88.3371061  68.7923942   6.6231285  86.0615555  69.7419990
   5.9805665  86.3548088  69.0959785   6.1186213  85.9468475  70.5473187
   4.2771448  89.8078728  60.4305850   5.1889304  90.0406115  60.2553547
   3.7681095  90.3915772  59.8680928   2.0642731  86.8280331  73.0981873
   1.8203663  87.5822392  72.5616148   2.3402662  87.2065679  73.9329120
   1.6207423  85.9836764  68.6795710   0.7591902  86.2818018  68.9712448
   1.6469858  86.2007163  67.7476743  13.2233015  92.5929647  66.2966467
  12.4696723  92.0237045  66.1410472  13.3580556  92.5592312  67.2437102
   1.9624107  80.9873612  70.5020080   1.6188376  81.8775253  70.4259191
   2.3303069  80.7975269  69.6389665   1.0420647  83.3578267  68.4669313
   0.5385443  83.3208402  67.6537118   1.3351254  84.2671009  68.5265970
   1.7160693  88.8509315  60.8352296   1.4110828  89.1655464  61.6862439
   2.6691135  88.9290735  60.8779629   3.9505429  91.5592931  65.6516238
   4.4637311  92.1922923  66.1537948   4.6006653  90.9594127  65.2859598
   1.2121308  90.4333802  63.0277259   1.9593127  90.9455200  62.7184381
   1.4812897  90.1117855  63.8881653   3.6600145  87.4690919  65.0096048
   2.9222902  86.9568305  65.3406291   3.9126919  87.0291300  64.1979325
   3.7611772  80.2467171  65.6037818   4.0670649  79.3864534  65.3163733
   4.4864377  80.8384791  65.4036812   1.5699424  89.6239848  72.7019281
   1.9248811  89.8511321  73.5613747   2.2171555  89.9558225  72.0796537
   1.5894396  85.7091813  65.9542380   2.0863095  84.9561775  65.6343450
   0.8181377  85.7456129  65.3885589   9.4424153  91.4132178  67.5960671
   9.4314029  92.2956894  67.2254604   8.5741532  91.0603729  67.4015208
   6.0596728  90.3080819  64.0630837   6.5257180  91.1408811  63.9891140
   6.5104228  89.8425801  64.7676096   4.0313390  82.6761406  68.1021739
   3.1176470  82.9065633  68.2703946   4.4606492  82.7599850  68.9535771
   3.8019849  90.8651298  70.6021633   3.1491299  91.1127206  69.9474085
   4.1800229  90.0515436  70.2684110  10.0448763  92.5632398  64.2010134
  10.4879909  91.8139723  63.8029257   9.1675273  92.5542534  63.8183866
   4.1771511  90.0318743  75.1447297   5.0781374  89.8925207  74.8531294
   4.2519485  90.1973197  76.0845474   9.5881628  94.0337636  66.5932582
  10.4228519  94.4727440  66.7570142   9.7240756  93.5576289  65.7740827
   6.6373134  91.5917371  72.5410069   7.1127255  91.7845017  71.7328921
   5.7138699  91.6476557  72.2953453   1.2153350  83.6265214  71.5065903
   1.7335294  84.3626241  71.1812392   0.8608483  83.9329208  72.3412662
   1.4665944  80.0465497  67.0266800   1.7467698  79.3788686  67.6527226
   2.2516551  80.2394592  66.5141464   5.3374803  88.4683131  70.7738375
   6.2892225  88.5681228  70.7950599   5.1678253  87.6761399  71.2836459
   3.3589182  85.5538714  70.9597776   2.7639114  85.8343727  70.2644265
   3.0738879  86.0432615  71.7314517   7.8162880  91.6889251  69.8880675
   7.7839200  90.7505251  70.0740359   8.4263504  91.7673287  69.1546500
   7.9657369  88.4800294  69.9338958   7.4496417  87.6958751  69.7468887
   8.8497317  88.1519011  70.0985477   5.6268096  82.2241310  65.8934771
   5.4292917  81.9156398  66.7778103   6.2367801  82.9502948  66.0232700
  13.6339430  92.7505257  69.0286711  14.3642819  92.4890545  69.5894415
  13.0246376  92.0133979  69.0688779  11.7154727  90.8913120  69.6261163
  10.9887891  90.7569085  69.0177654  11.3002014  91.1989949  70.4317881
   1.3841742  82.1050216  63.6431302   1.9372781  82.5245670  64.3021325
   1.6211829  81.1785964  63.6854258   4.7620549  84.2150742  63.1509966
   4.1819218  84.8735546  62.7688019   4.4956482  83.3928086  62.7397384
   3.2124116  83.6155799  65.3531286   3.7123894  83.7272334  64.5445605
   3.8559724  83.3116852  65.9932095   3.5445427  86.3750832  62.2066314
   2.6571282  86.6600483  61.9886509   3.9599417  86.2144595  61.3593591
   6.8959964  86.3997353  65.9220654   7.6720354  86.8893805  66.1945270
   6.1708098  86.8255407  66.3792523   9.3332522  87.1124972  66.9794594
   9.9277013  86.8720708  66.2687903   9.4059106  86.3932103  67.6068131
   7.3291257  87.6795100  63.2466724   7.0728191  87.2791735  64.0774932
   6.7044125  88.3938894  63.1216863  11.6403595  90.4191173  65.7538015
  11.0803153  90.4884362  66.5269578  11.0347098  90.2432158  65.0337512
   1.3769475  79.1761035  63.5500389   0.6101871  78.6219521  63.6957071
   1.7880180  79.2482904  64.4114541  14.6005527  95.5759088  65.6037818
  14.9064404  94.7156452  65.3163733  15.3258132  96.1676709  65.4036812
  12.3059699  95.3757414  67.0266800  12.5861452  94.7080604  67.6527226
  13.0910306  95.5686510  66.5141464  12.2163230  94.5052952  63.5500389
  11.4495626  93.9511439  63.6957071  12.6273935  94.5774821  64.4114541
   2.3839262  54.2699852  53.0211774   1.6302970  53.7007250  52.8655778
   2.5186803  54.2362517  53.9682408   2.7945677  54.4275462  55.7532018
   3.5249065  54.1660750  56.3139721   2.1852622  53.6904184  55.7934086
   2.3865860  68.7717892  55.1713278   3.0244270  68.6524639  54.4676618
   2.2686703  69.7198736  55.2301230   1.9407129  66.4969346  52.2466486
   2.7270218  66.0788769  51.8956903   2.2045833  67.4015438  52.4148134
   2.1117206  71.9342196  46.9455143   1.4763039  72.0076823  47.6576047
   1.7814612  72.5235795  46.2674222   7.3415556  66.4344579  53.1499464
   8.0740728  65.8643796  53.3837294   6.5854912  66.0466179  53.5905970
   4.8640976  60.1466153  57.6094073   4.5324301  61.0161564  57.3855288
   4.2686590  59.8302437  58.2888103   1.3572496  72.3478699  57.0089986
   1.0573219  73.2503738  56.9005793   1.0123555  72.0810882  57.8611139
   4.7569639  64.8661239  54.6887423   3.8486517  64.7976648  54.3946184
   4.7057235  65.3433184  55.5169249   6.6231286  63.0677678  56.4665297
   5.9805666  63.3610211  55.8205092   6.1186214  62.9530598  57.2718494
   4.2771450  66.8140851  47.1551156   5.1889306  67.0468238  46.9798854
   3.7681097  67.3977895  46.5926235   2.5612217  71.2365479  60.7912449
   2.9695573  70.7947889  60.0467081   1.8389479  70.6618106  61.0446642
   2.8841032  71.7966669  54.5464738   2.2549894  71.9612383  53.8440806
   2.4966694  72.2108279  55.3175702   6.7630264  72.7321107  51.9009101
   6.0781302  73.1120008  51.3506135   6.8474113  73.3416434  52.6341049
   2.0642733  63.8342454  59.8227179   1.8203664  64.5884514  59.2861455
   2.3402663  64.2127801  60.6574426   4.0181195  70.3781066  58.5004445
   4.2298091  71.0212826  57.8238826   3.9710944  69.5443383  58.0326375
   1.6207424  62.9898887  55.4041017   0.7591903  63.2880140  55.6957755
   1.6469859  63.2069286  54.4722050   5.1327023  73.2553022  56.6726802
   5.9544467  72.8533209  56.3909484   5.1289426  73.1521256  57.6242918
  13.2233016  69.5991770  53.0211774  12.4696725  69.0299168  52.8655778
  13.3580558  69.5654434  53.9682408   2.3381359  75.3731539  60.8548237
   2.3199834  76.1940420  60.3628506   3.2601279  75.2485614  61.0798378
   1.9624108  57.9935734  57.2265387   1.6188377  58.8837376  57.1504497
   2.3303071  57.8037392  56.3634972   1.9274391  67.9844345  45.7337822
   1.4121014  68.7548950  45.9726209   1.6551699  67.3109481  46.3570883
   1.0420648  60.3640389  55.1914620   0.5385444  60.3270524  54.3782425
   1.3351255  61.2733132  55.2511277   6.9008665  70.7376700  47.6690995
   6.1238108  70.3987859  47.2246157   7.5800146  70.7429323  46.9945960
   1.7160694  65.8571437  47.5597603   1.4110829  66.1717587  48.4107746
   2.6691136  65.9352857  47.6024936   5.1399972  70.2110681  54.3257603
   4.4823646  70.9009943  54.4137732   5.9440371  70.6007113  54.6691590
   3.9505431  68.5655054  52.3761545   4.4637312  69.1985046  52.8783255
   4.6006654  67.9656249  52.0104905   1.2127805  78.5439378  45.1322216
   0.5389504  78.8471075  45.7407174   1.5993627  79.3468458  44.7827673
   1.2121309  67.4395925  49.7522566   1.9593128  67.9517322  49.4429688
   1.4812899  67.1179978  50.6126959   4.7167227  73.5461055  50.5040688
   4.2629554  72.7051965  50.5605878   4.0861193  74.1822454  50.8415468
   3.6600146  64.4753041  51.7341355   2.9222903  63.9630428  52.0651598
   3.9126920  64.0353423  50.9224632   3.1600166  75.3837552  51.4390506
   3.4523140  75.9442609  50.7202871   3.6698787  75.6766113  52.1943665
   3.7611774  57.2529293  52.3283124   4.0670650  56.3926657  52.0409039
   4.4864378  57.8446914  52.1282118   1.5699425  66.6301971  59.4264588
   1.9248813  66.8573444  60.2859054   2.2171556  66.9620347  58.8041843
   7.2997162  69.7520407  50.1313917   7.1615061  69.9422002  49.2035106
   6.9433381  70.5139789  50.5881968   7.3266542  71.8196934  55.1425189
   7.7603048  71.7272223  55.9908243   8.0398122  71.7954434  54.5045205
   8.1882091  71.8620634  57.6758074   8.3817981  72.7666445  57.9217349
   8.0882709  71.4028053  58.5096659   3.2497200  72.0127377  63.2498955
   3.0982706  71.7837929  62.3329038   3.2401879  72.9697978  63.2630300
   3.3035275  70.3347591  43.6669656   2.6864445  69.6094419  43.5702709
   2.8351763  71.0956951  43.3236730   4.9589406  75.0446499  61.3275437
   4.9001953  74.3605720  60.6606020   5.3608925  75.7865489  60.8756063
   4.9606814  73.0086083  59.5589416   4.0733592  72.6712005  59.6815815
   5.5305365  72.2769115  59.7958182   1.5894397  62.7153935  52.6787686
   2.0863096  61.9623898  52.3588757   0.8181378  62.7518252  52.1130896
   9.4424154  68.4194301  54.3205978   9.4314030  69.3019016  53.9499911
   8.5741534  68.0665852  54.1260515   0.9506651  77.5674370  58.6808818
   1.6634623  78.2021835  58.6084720   0.4596679  77.6638236  57.8648820
   2.6724178  71.4725622  50.2526110   1.7380456  71.5927085  50.0830814
   2.8500846  70.5698089  49.9886120   6.0596729  67.3142942  50.7876144
   6.5257181  68.1470933  50.7136447   6.5104229  66.8487923  51.4921402
   4.1272960  73.6586763  47.7862296   4.4032804  73.5443358  48.6956170
   3.2577459  73.2604248  47.7474469   4.0313392  59.6823529  54.8267045
   3.1176471  59.9127756  54.9949252   4.4606493  59.7661973  55.6781078
   3.8019850  67.8713421  57.3266939   3.1491300  68.1189328  56.6719392
   4.1800230  67.0577559  56.9929417   0.7627024  77.9073114  51.4295110
   0.9449419  77.0894770  51.8922862   1.5860010  78.1240806  50.9920000
   1.0969189  76.8341299  48.6910158   1.6256956  76.3233754  48.0780320
   1.3597409  76.5183829  49.5555691   3.4441080  74.7461417  63.9039247
   3.9880984  75.3591375  63.4094202   2.8627925  75.3040995  64.4206260
   1.7298593  77.8682135  55.0354274   1.6049733  77.0671875  54.5265220
   2.3877684  78.3628328  54.5468244   3.7933502  75.6691155  56.6633825
   2.8463837  75.5496506  56.5912151   4.1416275  74.7813653  56.7460086
   0.7979935  75.4643871  52.8638177   0.6504897  74.5360578  53.0445747
   1.6233428  75.4863962  52.3795252   4.4014057  76.2872430  53.9503050
   5.3260604  76.0815291  53.8127501   4.2329360  76.0388831  54.8592391
   4.1909373  76.8058097  49.3065141   4.3646251  76.2404520  48.5538993
   4.6838264  77.6058992  49.1244631  10.0448764  69.5694520  50.9255441
  10.4879910  68.8201845  50.5274564   9.1675274  69.5604657  50.5429173
   5.1784546  76.1224862  46.4062039   5.8735450  76.7431554  46.6249354
   5.5207696  75.2720213  46.6814417   7.0775969  73.5724567  47.9349370
   7.6027293  73.9111840  47.2098690   6.9898321  72.6371582  47.7512505
   6.7669875  74.2057471  63.2400568   5.9765418  74.1881610  62.7005067
   6.5303229  74.7445764  63.9949605   6.8867750  71.0549937  60.5533297
   6.9365755  70.8899945  61.4948819   6.7781673  70.1877196  60.1631177
   4.1771512  67.0380865  61.8692603   5.0781375  66.8987330  61.5776601
   4.2519487  67.2035320  62.8090781   8.3885947  73.4746879  60.7975318
   8.0970755  73.8376859  61.6338779   7.7758078  72.7613887  60.6188650
   9.5881629  71.0399758  53.3177888  10.4228520  71.4789563  53.4815449
   9.7240758  70.5638412  52.4986134   6.6373135  68.5979493  59.2655376
   7.1127256  68.7907140  58.4574227   5.7138700  68.6538679  59.0198760
   1.2153351  60.6327337  58.2311210   1.7335295  61.3688364  57.9057699
   0.8608484  60.9391330  59.0657969   1.4665945  57.0527619  53.7512107
   1.7467699  56.3850808  54.3772533   2.2516552  57.2456715  53.2386770
   5.3374804  65.4745253  57.4983682   6.2892227  65.5743351  57.5195906
   5.1678254  64.6823522  58.0081766   3.3589183  62.5600837  57.6843083
   2.7639115  62.8405849  56.9889571   3.0738880  63.0494738  58.4559824
   2.4896674  76.5123763  46.4445715   3.4227347  76.4469325  46.6478591
   2.4019887  77.3480030  45.9860248   5.1184690  75.8289634  43.4049663
   5.0398322  75.4949497  44.2985421   5.9394357  76.3211402  43.4041135
   7.8162882  68.6951373  56.6125981   7.7839202  67.7567374  56.7985665
   8.4263505  68.7735410  55.8791806   7.9657370  65.4862417  56.6584265
   7.4496419  64.7020873  56.4714193   8.8497319  65.1581133  56.8230784
   5.6268097  59.2303432  52.6180077   5.4292918  58.9218520  53.5023409
   6.2367803  59.9565071  52.7478007  13.6339431  69.7567380  55.7532018
  14.3642820  69.4952668  56.3139721  13.0246377  69.0196102  55.7934086
  11.7154729  67.8975243  56.3506469  10.9887892  67.7631207  55.7422961
  11.3002015  68.2052071  57.1563187   1.3841744  59.1112339  50.3676609
   1.9372782  59.5307792  51.0266632   1.6211830  58.1848087  50.4099565
   4.7620551  61.2212864  49.8755273   4.1819220  61.8797668  49.4933325
   4.4956483  60.3990209  49.4642690   3.2124117  60.6217922  52.0776593
   3.7123895  60.7334456  51.2690912   3.8559725  60.3178975  52.7177402
   3.5445429  63.3812955  48.9311621   2.6571284  63.6662605  48.7131816
   3.9599418  63.2206718  48.0838898   6.8959965  63.4059475  52.6465960
   7.6720355  63.8955928  52.9190577   6.1708099  63.8317530  53.1037830
   9.3332523  64.1187095  53.7039901   9.9277014  63.8782831  52.9933209
   9.4059107  63.3994225  54.3313437   2.6888642  73.1457629  43.0259641
   3.3924492  73.3507632  43.6417297   1.9651291  73.7134391  43.2908725
   3.5186452  68.8967490  49.1461911   3.4621654  69.3536042  48.3069544
   4.0714795  68.1358175  48.9684754   7.3291258  64.6857222  49.9712031
   7.0728193  64.2853858  50.8020238   6.7044126  65.4001016  49.8462170
  11.6403596  67.4253296  52.4783322  11.0803154  67.4946485  53.2514884
  11.0347100  67.2494280  51.7582818   4.5975340  73.5840158  45.0758101
   5.4320944  73.1521357  44.8935576   4.4359683  73.4122172  46.0034996
   4.2521232  70.0872272  46.4414440   4.1970036  69.9216543  45.5002885
   3.6267287  70.7948305  46.5976630   1.5667139  72.3921184  65.7668003
   2.4358299  72.5661836  65.4054638   1.0873890  73.2115600  65.6443733
   1.3769477  56.1823157  50.2745696   0.6101873  55.6281644  50.4202378
   1.7880182  56.2545026  51.1359847  13.2259615  84.1009810  55.1713278
  13.8638025  83.9816557  54.4676618  13.1080458  85.0490653  55.2301230
  10.0349321  84.0537238  55.1074803   9.6967832  83.9378302  54.2195337
  10.9039089  83.6528403  55.0875809   5.8936137  85.9072714  51.0971693
   5.3301002  85.8162651  50.3287981   5.7788532  85.0872618  51.5774186
  10.5169104  85.2072089  61.0661008  10.5057745  84.8124888  60.1941512
  10.6789743  84.4738162  61.6594780   3.4400569  87.4023906  53.9355914
   4.2321861  87.0614730  53.5202213   3.6797219  87.5118881  54.8558067
  11.4735695  89.5743682  46.4086158  10.8223675  90.1597762  46.0220172
  12.2680058  90.1049877  46.4681196   5.3991323  86.6632819  46.8073293
   6.1722199  86.1161806  46.6686169   5.7516721  87.5277068  47.0187754
   7.2376365  87.9909201  60.0140192   6.9466231  88.8954832  59.8986858
   7.8733349  88.0325729  60.7284262   8.1632572  85.3686050  56.6041552
   8.7596144  85.1442072  55.8898515   8.2207543  84.6270795  57.2067000
   7.7357600  82.8225485  44.4391743   7.9883121  82.3007006  43.6775206
   6.7982159  82.6591630  44.5418426  12.7800883  81.8261263  52.2466486
  13.5663972  81.4080687  51.8956903  13.0439588  82.7307356  52.4148134
  12.9510961  87.2634114  46.9455143  12.3156794  87.3368740  47.6576047
  12.6208367  87.8527712  46.2674222  18.1809310  81.7636497  53.1499464
  18.9134482  81.1935713  53.3837294  17.4248666  81.3758097  53.5905970
   7.4553889  84.7253591  46.6416118   7.3390147  84.0498494  47.3097202
   7.5656149  84.2385965  45.8248271   9.7985430  84.1863738  50.3462807
   9.4343637  83.6594359  51.0575728  10.6552546  83.7962207  50.1729292
  15.7034731  75.4758071  57.6094073  15.3718055  76.3453482  57.3855288
  15.1080344  75.1594355  58.2888103   9.4390917  79.2153638  45.3424155
   9.6065319  80.0833874  45.7094626   9.2488086  79.3780919  44.4185445
  12.1966250  87.6770617  57.0089986  11.8966973  88.5795655  56.9005793
  11.8517310  87.4102800  57.8611139   5.6478732  84.1284413  53.0426690
   4.7229228  83.9960628  53.2504382   5.8963145  84.9078633  53.5396633
  15.5963394  80.1953157  54.6887423  14.6880271  80.1268565  54.3946184
  15.5450990  80.6725102  55.5169249   9.4180138  81.6711295  46.3270822
   9.2979763  82.1168346  47.1656302   8.7232726  82.0196613  45.7684360
   3.0087543  83.7717687  53.8770479   3.1379924  84.0252166  54.7909891
   2.3284994  84.3645395  53.5575134   9.6704260  81.6142802  62.6322320
   8.8937594  82.1736723  62.6225185  10.3094823  82.0999585  63.1537190
  17.4625040  78.3969595  56.4665297  16.8199421  78.6902128  55.8205092
  16.9579969  78.2822516  57.2718494  15.1165204  82.1432768  47.1551156
  16.0283060  82.3760155  46.9798854  14.6074851  82.7269813  46.5926235
   7.9250632  84.4228256  62.1940287   8.6665316  84.9613300  61.9175111
   7.2187618  85.0494545  62.3511839  13.4005972  86.5657396  60.7912449
  13.8089328  86.1239807  60.0467081  12.6783233  85.9910024  61.0446642
   9.7537042  81.5030003  58.1646006  10.5998237  81.9269417  58.3080655
   9.6935679  80.8463627  58.8584569  13.7234786  87.1258587  54.5464738
  13.0943649  87.2904301  53.8440806  13.3360448  87.5400196  55.3175702
  17.6024018  88.0613025  51.9009101  16.9175056  88.4411926  51.3506135
  17.6867868  88.6708351  52.6341049  12.9036487  79.1634371  59.8227179
  12.6597419  79.9176432  59.2861455  13.1796418  79.5419719  60.6574426
  14.8574950  85.7072984  58.5004445  15.0691845  86.3504744  57.8238826
  14.8104698  84.8735300  58.0326375  12.4601179  78.3190804  55.4041017
  11.5985658  78.6172058  55.6957755  12.4863613  78.5361203  54.4722050
   9.2762748  86.8632995  51.8114823   9.7401094  87.1420698  51.0219445
   9.0119546  85.9616440  51.6287913   6.1686829  86.4104477  54.7494586
   6.7388186  86.8391745  54.1112071   6.7594941  86.1287061  55.4478772
   8.2131634  82.9856147  48.6204388   8.9155678  83.4377191  49.0878314
   7.8812263  82.3439966  49.2484281   6.6611996  81.5767904  62.9955597
   6.0310656  82.2584185  63.2290994   6.5548084  81.4650986  62.0508736
   1.9556968  81.2439700  53.9221521   1.1656022  81.4997229  53.4461632
   2.4468216  82.0588038  54.0273562  15.9720778  88.5844939  56.6726802
  16.7938222  88.1825126  56.3909484  15.9683181  88.4813173  57.6242918
   3.9071714  81.6084279  50.8804998   3.1102877  81.7202973  51.3988494
   3.6797306  81.9470931  50.0145889   9.7377381  88.1328982  58.8287513
   9.8021814  88.5949390  59.6645685   9.0288305  87.5026347  58.9569823
  24.0626771  84.9283688  53.0211774  23.3090479  84.3591086  52.8655778
  24.1974312  84.8946352  53.9682408   9.4525399  89.7997090  48.6966493
   9.3171074  90.6448626  49.1251341   9.9935211  90.0016368  47.9332427
   5.9392739  75.8788670  65.3580848   5.5459684  75.3254868  66.0328493
   6.7558879  76.1899248  65.7487366   2.9054796  87.3172528  49.2694418
   3.4179317  88.1115778  49.4199983   3.5577509  86.6198818  49.2028020
   4.7149681  90.4338284  51.3517171   4.8916309  91.3556249  51.1638155
   5.5106515  90.1196703  51.7811551   8.8560700  77.2946549  62.9501105
   9.5970413  77.8953702  62.8705567   9.0878622  76.5524187  62.3919147
   4.0002038  82.4802916  61.2279335   3.8855553  81.5788173  61.5286434
   3.1446555  82.7266613  60.8764151  11.0793875  90.4220656  62.8266835
  10.6357729  89.6357035  62.5087740  11.7411089  90.6099807  62.1610726
   5.8380996  91.9516458  57.3527514   6.3888422  91.8233521  56.5804508
   4.9992472  92.2511347  57.0022407  13.1775113  90.7023456  60.8548237
  13.1593589  91.5232337  60.3628506  14.0995033  90.5777532  61.0798378
   9.6348168  88.2167586  61.6971745  10.1676504  87.4555874  61.4671053
   9.1062249  87.9241238  62.4395899  12.8017862  73.3227652  57.2265387
  12.4582132  74.2129294  57.1504497  13.1696825  73.1329309  56.3634972
   0.8703713  85.6461182  50.0453989   1.7078935  86.0558191  49.8287696
   1.0481981  84.7060624  50.0154183  12.7668145  83.3136263  45.7337822
  12.2514769  84.0840868  45.9726209  12.4945454  82.6401399  46.3570883
  10.3515256  78.1585964  50.7923060   9.4956853  77.7692814  50.6128699
  10.7642208  78.2377925  49.9322846  11.8814403  75.6932307  55.1914620
  11.3779198  75.6562442  54.3782425  12.1745010  76.6025050  55.2511277
   8.1257289  75.7771037  54.1980802   8.9910286  75.5813845  53.8386691
   8.1934798  75.5481388  55.1250158  17.7402419  86.0668618  47.6690995
  16.9631862  85.7279777  47.2246157  18.4193900  86.0721241  46.9945960
  12.5554448  81.1863355  47.5597603  12.2504584  81.5009504  48.4107746
  13.5084890  81.2644775  47.6024936  11.0000880  87.3453578  49.2090557
  10.4722242  86.6106338  48.8963794  10.4988383  88.1228255  48.9630525
  15.9793726  85.5402599  54.3257603  15.3217401  86.2301860  54.4137732
  16.7834125  85.9299031  54.6691590   5.7319608  78.0073245  51.5697168
   6.3063360  77.7848426  50.8370361   6.3190590  78.0761939  52.3225770
  14.7899185  83.8946972  52.3761545  15.3031067  84.5276963  52.8783255
  15.4400409  83.2948167  52.0104905   6.0589195  80.0377706  45.5893054
   5.2226507  80.3752392  45.9102328   5.9193965  79.9026685  44.6520191
   8.0342276  74.8814494  50.2972238   7.3806688  74.5663511  49.6728853
   7.9922750  74.2590234  51.0232061   9.1453480  85.1633789  42.2125530
   8.2380542  84.9323042  42.4116679   9.6424512  84.3671408  42.3999511
  12.0521559  93.8731296  45.1322216  11.3783258  94.1762993  45.7407174
  12.4387381  94.6760376  44.7827673  11.2680016  81.3696427  54.6219885
  10.3502577  81.5911374  54.4641574  11.6840160  81.4442738  53.7631593
  12.0515064  82.7687843  49.7522566  12.7986883  83.2809240  49.4429688
  12.3206653  82.4471895  50.6126959  10.3241714  85.2646383  46.7349520
   9.4152933  84.9805416  46.8321990  10.3536798  85.6845462  45.8752827
  15.5560981  88.8752973  50.5040688  15.1023308  88.0343883  50.5605878
  14.9254948  89.5114371  50.8415468  14.4993901  79.8044959  51.7341355
  13.7616658  79.2922345  52.0651598  14.7520674  79.3645341  50.9224632
  13.9993920  90.7129470  51.4390506  14.2916895  91.2734527  50.7202871
  14.5092541  91.0058031  52.1943665  14.6005528  72.5821211  52.3283124
  14.9064405  71.7218574  52.0409039  15.3258133  73.1738831  52.1282118
   8.8726608  82.8775004  52.8359315   8.9275218  81.9248840  52.7601792
   8.0617810  83.0334443  53.3200614  10.0217802  86.8055127  44.0737599
   9.5837232  86.0890986  43.6143236  10.7628242  87.0331242  43.5122690
   6.8118968  81.4952064  50.5949694   5.9986833  81.7946234  51.0014886
   7.3077962  81.1007753  51.3124176   8.9627546  91.4909821  52.5283959
   8.9203724  91.7170667  51.5992491   9.8790245  91.2573195  52.6769760
  12.4093179  81.9593888  59.4264588  12.7642567  82.1865361  60.2859054
  13.0565311  82.2912265  58.8041843  18.1390916  85.0812324  50.1313917
  18.0008815  85.2713920  49.2035106  17.7827135  85.8431707  50.5881968
   6.3033043  79.0670419  56.2110929   6.9432422  78.9259178  55.5133892
   5.4710573  78.7804933  55.8349531  18.1660296  87.1488851  55.1425189
  18.5996803  87.0564140  55.9908243  18.8791877  87.1246352  54.5045205
   7.0793346  88.3672850  52.3245922   7.8733945  87.8723170  52.1228497
   6.3685039  87.8390713  51.9613627  11.8988191  90.7490945  56.6758289
  11.9525213  91.3181882  57.4436005  11.0302972  90.9192830  56.3112326
   3.3876110  82.5115932  48.4005674   2.4573698  82.4500387  48.6175636
   3.4833582  81.9891884  47.6042316   3.3061659  79.0370744  50.9883916
   3.5668476  79.9516078  50.8793076   4.1278831  78.5695187  51.1380529
   4.7786584  80.4508502  58.1582741   5.4509638  80.2425864  57.5095389
   3.9516371  80.2530588  57.7187973  19.0275846  87.1912552  57.6758074
  19.2211736  88.0958362  57.9217349  18.9276464  86.7319971  58.5096659
  10.6812156  77.0770442  60.1748401  10.0340071  77.7760392  60.0812878
  11.4513172  77.5106586  60.5424650  14.0890954  87.3419295  63.2498955
  13.9376461  87.1129846  62.3329038  14.0795634  88.2989896  63.2630300
  10.8576291  84.9151207  58.2345221  11.7868351  85.0662367  58.0614188
  10.4367321  85.0035228  57.3793868   9.6564622  88.9401872  56.0043759
   9.5175708  88.5720656  56.8769697   8.8679219  89.4549511  55.8327717
  11.2069838  88.3183474  53.3932597  10.8719670  88.2784244  54.2890246
  10.7073783  87.6528190  52.9203007   5.1814082  83.7251104  58.9185178
   5.0433879  82.9931343  59.5196717   6.0919005  83.6360005  58.6369365
  14.1429029  85.6639509  43.6669656  13.5258200  84.9386337  43.5702709
  13.6745518  86.4248869  43.3236730   7.8096382  83.4371064  58.4068857
   8.5196001  82.7964256  58.3655476   7.7665690  83.6883959  59.3295038
  15.7983161  90.3738417  61.3275437  15.7395707  89.6897637  60.6606020
  16.2002679  91.1157407  60.8756063   6.5225316  80.4236282  60.2264497
   5.9862673  79.9727020  60.8786093   5.9342025  80.5582191  59.4834961
   5.9327575  79.8824933  42.7890960   5.0557041  79.7613734  42.4253207
   6.4085328  79.0911011  42.5369849  15.8000568  88.3378001  59.5589416
  14.9127347  88.0003923  59.6815815  16.3699119  87.6061032  59.7958182
   2.2564437  79.5592289  57.3117491   2.1722626  78.9517959  56.5767901
   1.4347144  80.0501308  57.3126988   9.3301722  92.9979453  56.5250659
   9.2571893  93.8034425  57.0369964   8.8879115  93.1971419  55.6998681
   9.1191501  92.2351223  50.0353481   8.3359023  92.7772904  50.1291705
   9.8184246  92.7525203  50.4347722  12.4288151  78.0445853  52.6787686
  12.9256851  77.2915815  52.3588757  11.6575133  78.0810170  52.1130896
  20.2817909  83.7486218  54.3205978  20.2707785  84.6310934  53.9499911
  19.4135288  83.3957769  54.1260515  11.7900405  92.8966287  58.6808818
  12.5028377  93.5313752  58.6084720  11.2990434  92.9930153  57.8648820
  13.5117932  86.8017540  50.2526110  12.5774211  86.9219003  50.0830814
  13.6894600  85.8990007  49.9886120   9.0123120  80.1863236  52.4059371
   8.6420908  79.6334276  53.0940277   9.5082213  79.5821369  51.8534371
  16.8990483  82.6434859  50.7876144  17.3650936  83.4762851  50.7136447
  17.3497984  82.1779841  51.4921402   6.8412319  90.6460731  59.5014389
   7.5421778  91.2797214  59.6543783   6.3707434  90.9875462  58.7410028
  14.9666714  88.9878681  47.7862296  15.2426558  88.8735275  48.6956170
  14.0971213  88.5896166  47.7474469  14.8707146  75.0115446  54.8267045
  13.9570226  75.2419673  54.9949252  15.3000248  75.0953890  55.6781078
  14.6413605  83.2005338  57.3266939  13.9885055  83.4481246  56.6719392
  15.0193984  82.3869477  56.9929417  11.6020778  93.2365032  51.4295110
  11.7843173  92.4186687  51.8922862  12.4253764  93.4532724  50.9920000
  11.9362944  92.1633217  48.6910158  12.4650710  91.6525671  48.0780320
  12.1991164  91.8475747  49.5555691  10.6901178  83.9425149  63.8132976
  10.0141815  83.8419279  64.4835352  11.5128811  83.7864363  64.2768974
   2.4380037  90.1797086  56.4345492   3.0233473  89.4340774  56.5673396
   2.2404875  90.4901043  57.3182155   4.4088454  77.5967227  58.6512477
   4.4729780  78.4582058  58.2389875   4.3455574  76.9841228  57.9184836
   3.8840726  79.6690359  62.2985511   4.5112765  79.2867437  62.9123036
   3.0268645  79.4504561  62.6641204  14.2834835  90.0753334  63.9039247
  14.8274739  90.6883293  63.4094202  13.7021680  90.6332913  64.4206260
  12.5692348  93.1974052  55.0354274  12.4443487  92.3963792  54.5265220
  13.2271439  93.6920246  54.5468244   4.1900516  79.5522785  54.2131415
   3.4687102  80.1658753  54.0738888   4.9793772  80.0880550  54.1348061
  14.6327256  90.9983073  56.6633825  13.6857592  90.8788424  56.5912151
  14.9810029  90.1105571  56.7460086   6.9926830  76.8877211  60.4872066
   7.5161231  77.1339508  61.2498376   6.7739163  77.7197246  60.0675204
   2.3894111  79.1580886  48.3543191   2.0606817  78.2778265  48.1718297
   2.7433481  79.1028555  49.2419581  11.6373689  90.7935789  52.8638177
  11.4898652  89.8652496  53.0445747  12.4627183  90.8155879  52.3795252
   5.5035934  79.4453856  48.7218669   5.8432006  79.9739777  47.9997277
   5.9508054  79.7834262  49.4977235  15.2407811  91.6164347  53.9503050
  16.1654359  91.4107209  53.8127501  15.0723115  91.3680749  54.8592391
   8.1979375  77.8290907  58.1721737   7.8576195  77.0298720  58.5742417
   7.4918381  78.1292617  57.5998570   8.8495846  74.9140219  56.6249060
   9.6721916  74.4400697  56.5027950   9.0933910  75.6930703  57.1247746
   7.4904081  77.9428477  46.9211962   8.2112443  78.3209730  46.4175679
   6.8669385  78.6617354  47.0246940  11.6335204  78.6473626  47.8570294
  11.8498818  79.5298264  47.5559122  11.1529271  78.2559840  47.1275936
   6.3734425  81.6059340  54.4341039   6.2279006  81.9199643  55.3265320
   5.8959629  82.2244240  53.8811937   8.2330808  78.5961888  54.4821928
   8.2192377  77.7002981  54.1454226   8.9503236  78.6032551  55.1160214
  10.0856939  79.0299228  56.5275056   9.8274717  79.9516298  56.5259386
   9.5541979  78.6329662  57.2175520  15.0303128  92.1350015  49.3065141
  15.2040005  91.5696437  48.5538993  15.5232019  92.9350910  49.1244631
   7.6367704  77.4776268  49.7509498   7.7583615  76.5492914  49.9500386
   7.3469746  77.4914954  48.8387814  10.5058894  75.1631178  52.8876218
  10.5280591  75.2270511  51.9328198  10.9226953  74.3235687  53.0816724
  20.8842519  84.8986438  50.9255441  21.3273665  84.1493763  50.5274564
  20.0069029  84.8896574  50.5429173  16.0178300  91.4516779  46.4062039
  16.7129205  92.0723472  46.6249354  16.3601450  90.6012131  46.6814417
   1.6346109  83.2734580  60.2658857   0.8927845  83.4217216  60.8523487
   1.3138853  83.5342846  59.4025606  17.9169723  88.9016485  47.9349370
  18.4421047  89.2403758  47.2098690  17.8292076  87.9663500  47.7512505
   9.5789772  92.8150558  60.0639247   9.8876898  92.5699705  60.9361946
  10.3765254  93.0197197  59.5758117   2.0802723  91.1600009  52.2969251
   2.9060743  90.8603781  51.9167895   1.7296775  90.3907631  52.7459040
   7.0484256  90.5126477  54.3666925   6.4264265  89.8497182  54.0669153
   7.7189123  90.5387609  53.6840573   7.1208784  78.9908265  63.9599431
   7.1696939  79.8670388  63.5777201   7.6631298  78.4485658  63.3871074
  17.6063629  89.5349388  63.2400568  16.8159173  89.5173527  62.7005067
  17.3696984  90.0737682  63.9949605  17.7261504  86.3841855  60.5533297
  17.7759509  86.2191862  61.4948819  17.6175428  85.5169114  60.1631177
   6.6097763  89.0630401  47.8425385   6.7585883  89.7465865  47.1892058
   7.4164206  89.0435491  48.3574841  15.0165267  82.3672783  61.8692603
  15.9175129  82.2279248  61.5776601  15.0913241  82.5327238  62.8090781
   9.3508072  79.7439638  60.7145790   8.4811381  80.0373204  60.4428378
   9.5867552  80.3280083  61.4353053  19.2279701  88.8038796  60.7975318
  18.9364509  89.1668777  61.6338779  18.6151832  88.0905805  60.6188650
  20.4275383  86.3691676  53.3177888  21.2622275  86.8081480  53.4815449
  20.5634512  85.8930329  52.4986134  17.4766889  83.9271411  59.2655376
  17.9521011  84.1199057  58.4574227  16.5532455  83.9830597  59.0198760
   4.3650396  85.0895578  48.8486454   4.1196438  84.1857908  49.0466665
   4.5346310  85.0912729  47.9065932  12.0547106  75.9619255  58.2311210
  12.5729050  76.6980281  57.9057699  11.7002239  76.2683248  59.0657969
   3.6346043  80.8223936  46.3472616   2.9415288  80.8968291  45.6912652
   3.3897795  80.0584279  46.8694133  12.3059700  72.3819537  53.7512107
  12.5861454  71.7142726  54.3772533  13.0910307  72.5748633  53.2386770
  10.1093168  91.5578531  45.3137133   9.5367136  92.1768718  44.8607605
  10.6825962  92.1077893  45.8477055  16.1768558  80.8037171  57.4983682
  17.1285981  80.9035269  57.5195906  16.0072009  80.0115440  58.0081766
  14.1982938  77.8892754  57.6843083  13.6032870  78.1697767  56.9889571
  13.9132634  78.3786655  58.4559824  13.3290428  91.8415681  46.4445715
  14.2621101  91.7761243  46.6478591  13.2413641  92.6771948  45.9860248
  15.9578445  91.1581551  43.4049663  15.8792076  90.8241415  44.2985421
  16.7788112  91.6503319  43.4041135  18.6556636  84.0243291  56.6125981
  18.6232956  83.0859292  56.7985665  19.2657260  84.1027327  55.8791806
  10.4939967  82.8939344  42.6553185  11.4399072  82.7645552  42.7241603
  10.1154212  82.1554006  43.1322614  18.8051125  80.8154334  56.6584265
  18.2890173  80.0312791  56.4714193  19.6891073  80.4873051  56.8230784
  16.4661851  74.5595350  52.6180077  16.2686673  74.2510438  53.5023409
  17.0761557  75.2856989  52.7478007  24.4733186  85.0859298  55.7532018
  25.2036574  84.8244586  56.3139721  23.8640131  84.3488020  55.7934086
  22.5548483  83.2267160  56.3506469  21.8281647  83.0923125  55.7422961
  22.1395770  83.5343989  57.1563187  10.3778659  86.9457090  64.1153842
  11.2981669  87.1235689  64.3093889  10.3428243  86.0013135  63.9633542
   8.6782884  80.8189320  42.5908071   7.7714339  80.5222433  42.6670784
   8.9558865  80.5219138  41.7242357   3.3740732  84.8558125  56.7576624
   3.5926742  85.7875232  56.7764657   3.7866506  84.4966099  57.5431427
  10.2944950  75.3626210  48.7452312   9.4845678  75.0173295  49.1207558
  10.9829367  75.0533754  49.3339923  12.2235498  74.4404257  50.3676609
  12.7766537  74.8599710  51.0266632  12.4605584  73.5140005  50.4099565
   8.2468597  80.4291330  66.1479372   8.1465324  81.3785687  66.0791464
   8.0290139  80.1009569  65.2755443   7.4481669  77.6776255  42.7320050
   8.3100833  78.0031154  42.9915867   7.6332013  76.8907751  42.2193116
  15.6014305  76.5504782  49.8755273  15.0212974  77.2089586  49.4933325
  15.3350238  75.7282126  49.4642690  14.0517872  75.9509840  52.0776593
  14.5517650  76.0626374  51.2690912  14.6953479  75.6470892  52.7177402
   8.1099867  83.8588469  64.9644434   7.6266949  84.6588829  65.1708323
   8.1960806  83.8696414  64.0111878   1.3785827  85.6916849  52.8866253
   1.3556515  85.7904536  51.9348137   1.6886463  86.5382000  53.2083420
   4.0373205  87.7493004  57.0012868   4.9916458  87.7176946  56.9342799
   3.8385728  87.2883628  57.8163094   4.6272587  86.3194120  59.5683666
   5.4465476  86.8138199  59.5918503   4.9009395  85.4026088  59.5401233
  14.3839183  78.7104872  48.9311621  13.4965038  78.9954523  48.7131816
  14.7993172  78.5498636  48.0838898  17.7353719  78.7351393  52.6465960
  18.5114109  79.2247846  52.9190577  17.0101854  79.1609447  53.1037830
  20.1726278  79.4479012  53.7039901  20.7670769  79.2074748  52.9933209
  20.2452862  78.7286143  54.3313437  13.5282397  88.4749547  43.0259641
  14.2318247  88.6799549  43.6417297  12.8045045  89.0426309  43.2908725
  14.3580207  84.2259408  49.1461911  14.3015408  84.6827960  48.3069544
  14.9108549  83.4650093  48.9684754  18.1685013  80.0149140  49.9712031
  17.9121947  79.6145776  50.8020238  17.5437881  80.7292934  49.8462170
  22.4797351  82.7545213  52.4783322  21.9196909  82.8238403  53.2514884
  21.8740854  82.5786198  51.7582818  15.4369094  88.9132076  45.0758101
  16.2714698  88.4813275  44.8935576  15.2753437  88.7414090  46.0034996
  15.0914986  85.4164189  46.4414440  15.0363790  85.2508461  45.5002885
  14.4661042  86.1240222  46.5976630  12.4060893  87.7213101  65.7668003
  13.2752053  87.8953754  65.4054638  11.9267645  88.5407518  65.6443733
   8.4011112  74.9172298  46.0199759   8.3889782  75.8614138  46.1768030
   9.2934534  74.7342444  45.7259220   8.3300676  93.5941189  54.1067515
   7.3796307  93.5943050  53.9931888   8.6333162  92.8473923  53.5903550
  12.2163231  71.5115075  50.2745696  11.4495627  70.9573562  50.4202378
  12.6273936  71.5836944  51.1359847   4.2204992  77.7999871  64.3650877
   5.0836454  77.4436676  64.5754201   3.6470403  77.4613766  65.0526281
  23.6194638  97.1553181  52.2466486  24.4057727  96.7372604  51.8956903
  23.8833342  98.0599273  52.4148134  29.0203065  97.0928414  53.1499464
  29.7528237  96.5227631  53.3837294  28.2642420  96.7050015  53.5905970
  26.5428485  90.8049988  57.6094073  26.2111810  91.6745399  57.3855288
  25.9474099  90.4886272  58.2888103  20.2784671  94.5445555  45.3424155
  20.4459074  95.4125792  45.7094626  20.0881841  94.7072837  44.4185445
  26.4357148  95.5245075  54.6887423  25.5274026  95.4560483  54.3946184
  26.3844744  96.0017019  55.5169249  20.2573892  97.0003213  46.3270822
  20.1373518  97.4460264  47.1656302  19.5626481  97.3488531  45.7684360
  20.5098014  96.9434720  62.6322320  19.7331348  97.5028640  62.6225185
  21.1488577  97.4291503  63.1537190  28.3018795  93.7261513  56.4665297
  27.6593175  94.0194046  55.8205092  27.7973723  93.6114433  57.2718494
  25.9558959  97.4724686  47.1551156  26.8676815  97.7052073  46.9798854
  25.4468606  98.0561730  46.5926235  20.5930796  96.8321921  58.1646006
  21.4391991  97.2561334  58.3080655  20.5329434  96.1755545  58.8584569
  23.7430242  94.4926289  59.8227179  23.4991173  95.2468350  59.2861455
  24.0190172  94.8711637  60.6574426  23.2994933  93.6482722  55.4041017
  22.4379412  93.9463976  55.6957755  23.3257368  93.8653121  54.4722050
  34.9020525 100.2575605  53.0211774  34.1484234  99.6883003  52.8655778
  35.0368067 100.2238270  53.9682408  16.7786493  91.2080587  65.3580848
  16.3853439  90.6546786  66.0328493  17.5952633  91.5191166  65.7487366
  19.6954454  92.6238467  62.9501105  20.4364167  93.2245620  62.8705567
  19.9272377  91.8816104  62.3919147  23.6411617  88.6519570  57.2265387
  23.2975886  89.5421211  57.1504497  24.0090580  88.4621227  56.3634972
  21.1909011  93.4877881  50.7923060  20.3350607  93.0984732  50.6128699
  21.6035962  93.5669842  49.9322846  22.7208157  91.0224225  55.1914620
  22.2172953  90.9854360  54.3782425  23.0138764  91.9316967  55.2511277
  18.9651043  91.1062954  54.1980802  19.8304040  90.9105763  53.8386691
  19.0328552  90.8773306  55.1250158  23.3948203  96.5155273  47.5597603
  23.0898338  96.8301422  48.4107746  24.3478645  96.5936693  47.6024936
  16.5713362  93.3365162  51.5697168  17.1457114  93.1140344  50.8370361
  17.1584345  93.4053857  52.3225770  25.6292940  99.2238889  52.3761545
  26.1424821  99.8568881  52.8783255  26.2794163  98.6240085  52.0104905
  16.8982949  95.3669623  45.5893054  16.0620262  95.7044310  45.9102328
  16.7587719  95.2318603  44.6520191  18.8736030  90.2106411  50.2972238
  18.2200442  89.8955428  49.6728853  18.8316504  89.5882152  51.0232061
  22.1073770  96.6988345  54.6219885  21.1896332  96.9203292  54.4641574
  22.5233914  96.7734655  53.7631593  22.8908818  98.0979760  49.7522566
  23.6380637  98.6101158  49.4429688  23.1600408  97.7763813  50.6126959
  25.3387655  95.1336877  51.7341355  24.6010412  94.6214263  52.0651598
  25.5914429  94.6937258  50.9224632  25.4399283  87.9113129  52.3283124
  25.7458159  87.0510492  52.0409039  26.1651887  88.5030749  52.1282118
  23.2486934  97.2885806  59.4264588  23.6036322  97.5157279  60.2859054
  23.8959065  97.6204183  58.8041843  17.1426797  94.3962337  56.2110929
  17.7826176  94.2551096  55.5133892  16.3104328  94.1096850  55.8349531
  14.1455413  94.3662662  50.9883916  14.4062231  95.2807995  50.8793076
  14.9672586  93.8987105  51.1380529  15.6180339  95.7800419  58.1582741
  16.2903392  95.5717781  57.5095389  14.7910125  95.5822505  57.7187973
  21.5205911  92.4062360  60.1748401  20.8733826  93.1052310  60.0812878
  22.2906926  92.8398504  60.5424650  17.3619071  95.7528199  60.2264497
  16.8256428  95.3018938  60.8786093  16.7735779  95.8874108  59.4834961
  16.7721330  95.2116851  42.7890960  15.8950796  95.0905652  42.4253207
  17.2479083  94.4202929  42.5369849  23.2681906  93.3737771  52.6787686
  23.7650605  92.6207733  52.3588757  22.4968887  93.4102087  52.1130896
  31.1211663  99.0778136  54.3205978  31.1101539  99.9602852  53.9499911
  30.2529043  98.7249687  54.1260515  19.8516875  95.5155154  52.4059371
  19.4814662  94.9626194  53.0940277  20.3475967  94.9113287  51.8534371
  27.7384238  97.9726777  50.7876144  28.2044690  98.8054769  50.7136447
  28.1891738  97.5071759  51.4921402  25.7100901  90.3407364  54.8267045
  24.7963980  90.5711591  54.9949252  26.1394002  90.4245808  55.6781078
  25.4807359  98.5297256  57.3266939  24.8278809  98.7773164  56.6719392
  25.8587739  97.7161394  56.9929417  15.2482208  92.9259144  58.6512477
  15.3123535  93.7873975  58.2389875  15.1849328  92.3133146  57.9184836
  14.7234481  94.9982277  62.2985511  15.3506520  94.6159354  62.9123036
  13.8662400  94.7796479  62.6641204  15.0294270  94.8814703  54.2131415
  14.3080856  95.4950670  54.0738888  15.8187526  95.4172467  54.1348061
  17.8320584  92.2169129  60.4872066  18.3554986  92.4631426  61.2498376
  17.6132917  93.0489164  60.0675204  13.2287865  94.4872804  48.3543191
  12.9000571  93.6070183  48.1718297  13.5827236  94.4320472  49.2419581
  16.3429688  94.7745773  48.7218669  16.6825761  95.3031695  47.9997277
  16.7901809  95.1126180  49.4977235  19.0373129  93.1582824  58.1721737
  18.6969949  92.3590637  58.5742417  18.3312135  93.4584535  57.5998570
  19.6889601  90.2432137  56.6249060  20.5115670  89.7692615  56.5027950
  19.9327664  91.0222620  57.1247746  18.3297835  93.2720395  46.9211962
  19.0506198  93.6501648  46.4175679  17.7063139  93.9909272  47.0246940
  22.4728958  93.9765544  47.8570294  22.6892573  94.8590182  47.5559122
  21.9923025  93.5851757  47.1275936  19.0724563  93.9253805  54.4821928
  19.0586131  93.0294899  54.1454226  19.7896991  93.9324469  55.1160214
  20.9250693  94.3591145  56.5275056  20.6668471  95.2808216  56.5259386
  20.3935734  93.9621580  57.2175520  18.4761458  92.8068186  49.7509498
  18.5977370  91.8784832  49.9500386  18.1863501  92.8206872  48.8387814
  21.3452649  90.4923096  52.8876218  21.3674346  90.5562429  51.9328198
  21.7620708  89.6527605  53.0816724  31.7236273 100.2278356  50.9255441
  32.1667419  99.4785681  50.5274564  30.8462783 100.2188492  50.5429173
  17.9602538  94.3200183  63.9599431  18.0090693  95.1962306  63.5777201
  18.5025052  93.7777576  63.3871074  25.8559021  97.6964701  61.8692603
  26.7568884  97.5571165  61.5776601  25.9306996  97.8619155  62.8090781
  20.1901826  95.0731555  60.7145790  19.3205136  95.3665121  60.4428378
  20.4261307  95.6572000  61.4353053  31.2669138 101.6983594  53.3177888
  32.1016029 102.1373398  53.4815449  31.4028267 101.2222247  52.4986134
  28.3160644  99.2563329  59.2655376  28.7914765  99.4490975  58.4574227
  27.3926209  99.3122515  59.0198760  22.8940860  91.2911172  58.2311210
  23.4122804  92.0272199  57.9057699  22.5395993  91.5975166  59.0657969
  23.1453454  87.7111455  53.7512107  23.4255208  87.0434644  54.3772533
  23.9304061  87.9040550  53.2386770  27.0162313  96.1329089  57.4983682
  27.9679736  96.2327186  57.5195906  26.8465763  95.3407357  58.0081766
  25.0376692  93.2184672  57.6843083  24.4426624  93.4989685  56.9889571
  24.7526389  93.7078573  58.4559824  29.4950391  99.3535208  56.6125981
  29.4626711  98.4151209  56.7985665  30.1051014  99.4319245  55.8791806
  21.3333721  98.2231261  42.6553185  22.2792826  98.0937470  42.7241603
  20.9547966  97.4845923  43.1322614  29.6444879  96.1446252  56.6584265
  29.1283928  95.3604709  56.4714193  30.5284828  95.8164968  56.8230784
  27.3055606  89.8887267  52.6180077  27.1080427  89.5802356  53.5023409
  27.9155312  90.6148906  52.7478007  35.3126940 100.4151215  55.7532018
  36.0430329 100.1536503  56.3139721  34.7033886  99.6779937  55.7934086
  33.3942238  98.5559078  56.3506469  32.6675401  98.4215043  55.7422961
  32.9789524  98.8635906  57.1563187  19.5176639  96.1481238  42.5908071
  18.6108094  95.8514351  42.6670784  19.7952620  95.8511056  41.7242357
  21.1338704  90.6918128  48.7452312  20.3239433  90.3465212  49.1207558
  21.8223121  90.3825671  49.3339923  23.0629253  89.7696174  50.3676609
  23.6160291  90.1891628  51.0266632  23.2999339  88.8431922  50.4099565
  19.0862352  95.7583248  66.1479372  18.9859079  96.7077605  66.0791464
  18.8683894  95.4301487  65.2755443  18.2875423  93.0068173  42.7320050
  19.1494587  93.3323071  42.9915867  18.4725767  92.2199669  42.2193116
  26.4408060  91.8796699  49.8755273  25.8606729  92.5381504  49.4933325
  26.1743992  91.0574044  49.4642690  24.8911626  91.2801757  52.0776593
  25.3911404  91.3918292  51.2690912  25.5347234  90.9762810  52.7177402
  25.2232938  94.0396790  48.9311621  24.3358793  94.3246440  48.7131816
  25.6386927  93.8790553  48.0838898  28.5747474  94.0643311  52.6465960
  29.3507864  94.5539763  52.9190577  27.8495608  94.4901365  53.1037830
  31.0120032  94.7770930  53.7039901  31.6064523  94.5366666  52.9933209
  31.0846616  94.0578061  54.3313437  29.0078767  95.3441058  49.9712031
  28.7515702  94.9437693  50.8020238  28.3831635  96.0584852  49.8462170
  33.3191105  98.0837131  52.4783322  32.7590663  98.1530320  53.2514884
  32.7134609  97.9078116  51.7582818  19.2404866  90.2464216  46.0199759
  19.2283536  91.1906056  46.1768030  20.1328288  90.0634361  45.7259220
  23.0556986  86.8406993  50.2745696  22.2889381  86.2865479  50.4202378
  23.4667691  86.9128861  51.1359847  15.0598747  93.1291789  64.3650877
  15.9230208  92.7728593  64.5754201  14.4864157  92.7905683  65.0526281
  36.2793037 103.2405046  52.3283124  36.5851914 102.3802410  52.0409039
  37.0045642 103.8322667  52.1282118  33.9847209 103.0403372  53.7512107
  34.2648963 102.3726562  54.3772533  34.7697816 103.2332468  53.2386770
  33.8950740 102.1698910  50.2745696  33.1283136 101.6157397  50.4202378
  34.3061445 102.2420779  51.1359847   2.3839263  31.2761975  39.7457080
   1.6302972  30.7069373  39.5901085   2.5186804  31.2424639  40.6927715
   2.7945678  31.4337585  42.4777325   3.5249067  31.1722873  43.0385028
   2.1852624  30.6966307  42.5179393   2.3865861  45.7780014  41.8958584
   3.0244271  45.6586762  41.1921925   2.2686704  46.7260858  41.9546537
   1.9407130  43.5031468  38.9711793   2.7270219  43.0850891  38.6202210
   2.2045834  44.4077560  39.1393441   2.1117207  48.9404319  33.6700449
   1.4763040  49.0138945  34.3821354   1.7814614  49.5297917  32.9919529
   7.3415557  43.4406701  39.8744771   8.0740729  42.8705918  40.1082601
   6.5854913  43.0528302  40.3151277   4.8640977  37.1528276  44.3339380
   4.5324302  38.0223687  44.1100595   4.2686591  36.8364560  45.0133410
   1.3572497  49.3540822  43.7335292   1.0573220  50.2565860  43.6251100
   1.0123556  49.0873005  44.5856445   4.7569641  41.8723362  41.4132730
   3.8486518  41.8038770  41.1191491   4.7057237  42.3495307  42.2414555
   6.6231287  40.0739800  43.1910604   5.9805667  40.3672333  42.5450398
   6.1186216  39.9592720  43.9963800   4.2771451  43.8202973  33.8796463
   5.1889307  44.0530360  33.7044160   3.7681098  44.4040018  33.3171541
   2.5612218  48.2427601  47.5157755   2.9695575  47.8010012  46.7712388
   1.8389480  47.6680229  47.7691948   2.8841033  48.8028792  41.2710044
   2.2549896  48.9674506  40.5686112   2.4966695  49.2170401  42.0421008
   6.7630265  49.7383230  38.6254408   6.0781303  50.1182131  38.0751441
   6.8474114  50.3478556  39.3586356   2.0642734  40.8404576  46.5472486
   1.8203666  41.5946637  46.0106762   2.3402664  41.2189924  47.3819733
   4.0181197  47.3843189  45.2249752   4.2298092  48.0274949  44.5484133
   3.9710945  46.5505505  44.7571682   1.6207426  39.9961009  42.1286324
   0.7591905  40.2942263  42.4203061   1.6469860  40.2131408  41.1967356
   5.1327025  50.2615144  43.3972109   5.9544468  49.8595331  43.1154791
   5.1289427  50.1583378  44.3488225  13.2233018  46.6053893  39.7457080
  12.4696726  46.0361291  39.5901085  13.3580559  46.5716557  40.6927715
   2.3381360  52.3793661  47.5793543   2.3199835  53.2002542  47.0873812
   3.2601280  52.2547737  47.8043684   1.9624109  34.9997857  43.9510693
   1.6188379  35.8899498  43.8749804   2.3303072  34.8099514  43.0880278
   1.9274392  44.9906468  32.4583128   1.4121015  45.7611073  32.6971516
   1.6551700  44.3171604  33.0816190   1.0420650  37.3702512  41.9159926
   0.5385445  37.3332647  41.1027732   1.3351256  38.2795255  41.9756583
   6.9008666  47.7438823  34.3936302   6.1238109  47.4049982  33.9491464
   7.5800147  47.7491446  33.7191267   1.7160695  42.8633560  34.2842910
   1.4110831  43.1779709  35.1353053   2.6691137  42.9414980  34.3270243
   5.1399973  47.2172804  41.0502910   4.4823647  47.9072065  41.1383038
   5.9440372  47.6069236  41.3936896   3.9505432  45.5717176  39.1006852
   4.4637314  46.2047168  39.6028561   4.6006656  44.9718372  38.7350212
   1.2127806  55.5501501  31.8567523   0.5389505  55.8533197  32.4652481
   1.5993628  56.3530581  31.5072980   1.2121310  44.4458048  36.4767872
   1.9593129  44.9579445  36.1674994   1.4812900  44.1242100  37.3372266
   4.7167228  50.5523178  37.2285994   4.2629555  49.7114088  37.2851185
   4.0861195  51.1884576  37.5660774   3.6600148  41.4815164  38.4586662
   2.9222904  40.9692550  38.7896904   3.9126921  41.0415546  37.6469939
   3.1600167  52.3899675  38.1635812   3.4523142  52.9504732  37.4448178
   3.6698788  52.6828236  38.9188971   3.7611775  34.2591416  39.0528431
   4.0670652  33.3988779  38.7654346   4.4864380  34.8509036  38.8527425
   1.5699426  43.6364093  46.1509895   1.9248814  43.8635566  47.0104361
   2.2171557  43.9682470  45.5287150   7.2997163  46.7582529  36.8559224
   7.1615062  46.9484125  35.9280413   6.9433382  47.5201912  37.3127275
   7.3266543  48.8259056  41.8670495   7.7603049  48.7334345  42.7153549
   8.0398123  48.8016557  41.2290511   8.1882092  48.8682757  44.4003381
   8.3817982  49.7728567  44.6462656   8.0882711  48.4090176  45.2341966
   3.2497201  49.0189500  49.9744261   3.0982707  48.7900051  49.0574345
   3.2401880  49.9760101  49.9875606   3.3035276  47.3409714  30.3914963
   2.6864447  46.6156542  30.2948015   2.8351764  48.1019074  30.0482037
   4.9589408  52.0508622  48.0520743   4.9001954  51.3667842  47.3851326
   5.3608926  52.7927612  47.6001369   4.9606815  50.0148206  46.2834723
   4.0733594  49.6774128  46.4061122   5.5305366  49.2831237  46.5203488
   1.5894398  39.7216058  39.4032993   2.0863098  38.9686020  39.0834063
   0.8181380  39.7580375  38.8376202   9.4424155  45.4256423  41.0451284
   9.4314032  46.3081139  40.6745218   8.5741535  45.0727974  40.8505822
   0.9506652  54.5736492  45.4054125   1.6634624  55.2083957  45.3330026
   0.4596680  54.6700358  44.5894127   2.6724179  48.4787745  36.9771416
   1.7380457  48.5989208  36.8076121   2.8500847  47.5760212  36.7131426
   6.0596730  44.3205064  37.5121451   6.5257182  45.1533056  37.4381753
   6.5104231  43.8550046  38.2166709   4.1272961  50.6648886  34.5107603
   4.4032805  50.5505480  35.4201477   3.2577460  50.2666370  34.4719776
   4.0313393  36.6885651  41.5512352   3.1176473  36.9189878  41.7194559
   4.4606494  36.7724095  42.4026384   3.8019851  44.8775543  44.0512246
   3.1491302  45.1251451  43.3964699   4.1800231  44.0639681  43.7174723
   0.7627025  54.9135236  38.1540416   0.9449420  54.0956892  38.6168169
   1.5860011  55.1302929  37.7165306   1.0969191  53.8403422  35.4155465
   1.6256957  53.3295876  34.8025627   1.3597410  53.5245952  36.2800998
   3.4441082  51.7523539  50.6284553   3.9880986  52.3653498  50.1339508
   2.8627926  52.3103118  51.1451566   1.7298595  54.8744257  41.7599581
   1.6049734  54.0733997  41.2510527   2.3877686  55.3690451  41.2713551
   3.7933503  52.6753277  43.3879131   2.8463838  52.5558629  43.3157458
   4.1416276  51.7875775  43.4705393   0.7979936  52.4705994  39.5883483
   0.6504899  51.5422701  39.7691053   1.6233430  52.4926084  39.1040559
   4.4014058  53.2934552  40.6748356   5.3260606  53.0877414  40.5372807
   4.2329361  53.0450954  41.5837698   4.1909374  53.8120220  36.0310448
   4.3646252  53.2466642  35.2784300   4.6838266  54.6121115  35.8489938
  10.0448765  46.5756643  37.6500747  10.4879911  45.8263968  37.2519871
   9.1675276  46.5666779  37.2674479   5.1784547  53.1286984  33.1307346
   5.8735451  53.7493677  33.3494661   5.5207697  52.2782335  33.4059724
   7.0775970  50.5786690  34.6594677   7.6027294  50.9173963  33.9343997
   6.9898322  49.6433705  34.4757811   6.7669876  51.2119593  49.9645875
   5.9765420  51.1943732  49.4250374   6.5303231  51.7507887  50.7194911
   6.8867751  48.0612060  47.2778603   6.9365756  47.8962067  48.2194126
   6.7781674  47.1939319  46.8876484   4.1771513  44.0442988  48.5937910
   5.0781376  43.9049453  48.3021908   4.2519488  44.2097443  49.5336087
   8.3885948  50.4809001  47.5220625   8.0970756  50.8438982  48.3584086
   7.7758079  49.7676010  47.3433957   9.5881630  48.0461881  40.0423195
  10.4228522  48.4851685  40.2060755   9.7240759  47.5700534  39.2231441
   6.6373136  45.6041616  45.9900683   7.1127258  45.7969262  45.1819534
   5.7138701  45.6600802  45.7444066   1.2153353  37.6389459  44.9556517
   1.7335296  38.3750486  44.6303005   0.8608485  37.9453453  45.7903276
   1.4665947  34.0589742  40.4757413   1.7467700  33.3912931  41.1017840
   2.2516554  34.2518838  39.9632077   5.3374805  42.4807376  44.2228988
   6.2892228  42.5805474  44.2441212   5.1678255  41.6885645  44.7327073
   3.3589185  39.5662959  44.4088389   2.7639117  39.8467972  43.7134878
   3.0738881  40.0556860  45.1805130   2.4896675  53.5185886  33.1691022
   3.4227348  53.4531448  33.3723897   2.4019888  54.3542153  32.7105554
   5.1184692  52.8351756  30.1294969   5.0398323  52.5011620  31.0230727
   5.9394358  53.3273524  30.1286442   7.8162883  45.7013496  43.3371288
   7.7839203  44.7629496  43.5230972   8.4263506  45.7797532  42.6037113
   7.9657371  42.4924539  43.3829571   7.4496420  41.7082996  43.1959500
   8.8497320  42.1643256  43.5476091   5.6268098  36.2365555  39.3425384
   5.4292919  35.9280643  40.2268716   6.2367804  36.9627194  39.4723314
  13.6339433  46.7629503  42.4777325  14.3642821  46.5014791  43.0385028
  13.0246378  46.0258224  42.5179393  11.7154730  44.9037365  43.0751776
  10.9887893  44.7693330  42.4668268  11.3002017  45.2114194  43.8808494
   1.3841745  36.1174462  37.0921915   1.9372783  36.5369915  37.7511938
   1.6211831  35.1910210  37.1344871   4.7620552  38.2274987  36.6000579
   4.1819221  38.8859791  36.2178632   4.4956485  37.4052331  36.1887997
   3.2124118  37.6280044  38.8021900   3.7123897  37.7396579  37.9936219
   3.8559726  37.3241097  39.4422708   3.5445430  40.3875077  35.6556928
   2.6571285  40.6724728  35.4377122   3.9599419  40.2268840  34.8084205
   6.8959966  40.4121598  39.3711267   7.6720356  40.9018051  39.6435884
   6.1708100  40.8379652  39.8283136   9.3332525  41.1249217  40.4285208
   9.9277016  40.8844953  39.7178516   9.4059108  40.4056348  41.0558744
   2.6888643  50.1519752  29.7504948   3.3924494  50.3569754  30.3662603
   1.9651292  50.7196514  30.0154031   3.5186454  45.9029613  35.8707218
   3.4621655  46.3598164  35.0314850   4.0714796  45.1420298  35.6930061
   7.3291260  41.6919345  36.6957337   7.0728194  41.2915981  37.5265545
   6.7044128  42.4063139  36.5707477  11.6403597  44.4315418  39.2028629
  11.0803155  44.5008607  39.9760191  11.0347101  44.2556403  38.4828125
   4.5975341  50.5902281  31.8003408   5.4320945  50.1583479  31.6180883
   4.4359684  50.4184295  32.7280302   4.2521233  47.0934394  33.1659747
   4.1970037  46.9278666  32.2248191   3.6267288  47.8010427  33.3221937
   1.5667140  49.3983306  52.4913310   2.4358300  49.5723958  52.1299945
   1.0873892  50.2177723  52.3689039   1.3769478  33.1885280  36.9991002
   0.6101874  32.6343767  37.1447685   1.7880183  33.2607149  37.8605154
  13.2259616  61.1071932  41.8958584  13.8638026  60.9878679  41.1921925
  13.1080459  62.0552776  41.9546537  10.0349322  61.0599360  41.8320109
   9.6967834  60.9440425  40.9440644  10.9039090  60.6590525  41.8121115
   5.8936138  62.9134837  37.8217000   5.3301003  62.8224774  37.0533288
   5.7788533  62.0934741  38.3019493  10.5169105  62.2134212  47.7906315
  10.5057746  61.8187010  46.9186818  10.6789745  61.4800285  48.3840086
   3.4400570  64.4086028  40.6601221   4.2321862  64.0676853  40.2447520
   3.6797220  64.5181003  41.5803374  11.4735697  66.5805804  33.1331465
  10.8223676  67.1659885  32.7465479  12.2680059  67.1111999  33.1926502
   5.3991324  63.6694941  33.5318599   6.1722200  63.1223929  33.3931475
   5.7516723  64.5339191  33.7433061   7.2376366  64.9971324  46.7385499
   6.9466232  65.9016955  46.6232165   7.8733351  65.0387851  47.4529568
   8.1632573  62.3748172  43.3286858   8.7596145  62.1504195  42.6143821
   8.2207545  61.6332918  43.9312306   7.7357602  59.8287608  31.1637049
   7.9883122  59.3069129  30.4020512   6.7982161  59.6653753  31.2663733
  12.7800884  58.8323386  38.9711793  13.5663974  58.4142809  38.6202210
  13.0439589  59.7369478  39.1393441  12.9510962  64.2696236  33.6700449
  12.3156795  64.3430863  34.3821354  12.6208368  64.8589835  32.9919529
  18.1809312  58.7698619  39.8744771  18.9134484  58.1997836  40.1082601
  17.4248667  58.3820220  40.3151277   7.4553890  61.7315714  33.3661424
   7.3390148  61.0560617  34.0342509   7.5656150  61.2448087  32.5493577
   9.7985431  61.1925861  37.0708113   9.4343639  60.6656482  37.7821035
  10.6552547  60.8024330  36.8974599  15.7034732  52.4820193  44.3339380
  15.3718057  53.3515604  44.1100595  15.1080345  52.1656477  45.0133410
   9.4390918  56.2215760  32.0669462   9.6065321  57.0895997  32.4339933
   9.2488087  56.3843042  31.1430751  12.1966251  64.6832739  43.7335292
  11.8966975  65.5857778  43.6251100  11.8517311  64.4164922  44.5856445
   5.6478733  61.1346536  39.7671997   4.7229229  61.0022750  39.9749689
   5.8963146  61.9140755  40.2641939  15.5963395  57.2015279  41.4132730
  14.6880273  57.1330688  41.1191491  15.5450991  57.6787224  42.2414555
   9.4180139  58.6773418  33.0516129   9.2979764  59.1230469  33.8901609
   8.7232728  59.0258736  32.4929667   3.0087544  60.7779810  40.6015786
   3.1379925  61.0314289  41.5155198   2.3284995  61.3707518  40.2820441
   7.1787031  71.4477060  36.7006260   7.1011061  72.3984885  36.7794741
   6.5748675  71.1022932  37.3581186   9.6704261  58.6204925  49.3567627
   8.8937595  59.1798845  49.3470492  10.3094824  59.1061708  49.8782497
  17.4625042  55.4031718  43.1910604  16.8199422  55.6964251  42.5450398
  16.9579970  55.2884638  43.9963800  15.1165205  59.1494891  33.8796463
  16.0283061  59.3822278  33.7044160  14.6074852  59.7331935  33.3171541
   7.9250633  61.4290378  48.9185594   8.6665318  61.9675422  48.6420418
   7.2187619  62.0556667  49.0757146  13.4005973  63.5719519  47.5157755
  13.8089329  63.1301929  46.7712388  12.6783234  62.9972146  47.7691948
   9.7537043  58.5092126  44.8891312  10.5998238  58.9331539  45.0325961
   9.6935681  57.8525750  45.5829876  13.7234788  64.1320709  41.2710044
  13.0943650  64.2966424  40.5686112  13.3360450  64.5462319  42.0421008
  17.6024020  65.0675147  38.6254408  16.9175058  65.4474049  38.0751441
  17.6867869  65.6770474  39.3586356  12.9036488  56.1696494  46.5472486
  12.6597420  56.9238555  46.0106762  13.1796419  56.5481842  47.3819733
  14.8574951  62.7135106  45.2249752  15.0691846  63.3566866  44.5484133
  14.8104699  61.8797423  44.7571682  12.4601180  55.3252927  42.1286324
  11.5985659  55.6234181  42.4203061  12.4863615  55.5423326  41.1967356
   9.2762749  63.8695118  38.5360129   9.7401095  64.1482821  37.7464752
   9.0119548  62.9678562  38.3533220   6.1686831  63.4166599  41.4739893
   6.7388188  63.8453867  40.8357377   6.7594942  63.1349184  42.1724078
   8.2131636  59.9918270  35.3449695   8.9155679  60.4439314  35.8123621
   7.8812264  59.3502089  35.9729588   6.6611997  58.5830027  49.7200904
   6.0310658  59.2646307  49.9536301   6.5548085  58.4713108  48.7754042
   1.9556969  58.2501823  40.6466828   1.1656023  58.5059351  40.1706939
   2.4468217  59.0650160  40.7518869  15.9720779  65.5907062  43.3972109
  16.7938223  65.1887249  43.1154791  15.9683182  65.4875296  44.3488225
   3.9071715  58.6146402  37.6050305   3.1102878  58.7265096  38.1233801
   3.6797307  58.9533054  36.7391195   9.7377382  65.1391105  45.5532819
   9.8021815  65.6011512  46.3890991   9.0288306  64.5088470  45.6815129
  24.0626772  61.9345810  39.7457080  23.3090480  61.3653208  39.5901085
  24.1974313  61.9008475  40.6927715   9.4525400  66.8059213  35.4211800
   9.3171075  67.6510748  35.8496648   9.9935213  67.0078490  34.6577734
   5.9392740  52.8850792  52.0826155   5.5459685  52.3316991  52.7573799
   6.7558880  53.1961371  52.4732673   2.9054798  64.3234651  35.9939725
   3.4179318  65.1177901  36.1445290   3.5577510  63.6260941  35.9273326
   4.7149682  67.4400407  38.0762478   4.8916311  68.3618372  37.8883462
   5.5106516  67.1258826  38.5056858   8.8560701  54.3008671  49.6746412
   9.5970414  54.9015825  49.5950874   9.0878624  53.5586309  49.1164454
   4.0002039  59.4865039  47.9524641   3.8855554  58.5850296  48.2531740
   3.1446557  59.7328736  47.6009458  11.0793877  67.4282779  49.5512142
  10.6357731  66.6419158  49.2333046  11.7411090  67.6161930  48.8856033
   5.8380998  68.9578581  44.0772820   6.3888423  68.8295644  43.3049814
   4.9992474  69.2573470  43.7267713  13.1775115  67.7085579  47.5793543
  13.1593590  68.5294460  47.0873812  14.0995035  67.5839654  47.8043684
   9.6348169  65.2229708  48.4217052  10.1676506  64.4617997  48.1916359
   9.1062250  64.9303360  49.1641206  12.8017864  50.3289774  43.9510693
  12.4582133  51.2191416  43.8749804  13.1696826  50.1391432  43.0880278
   0.8703714  62.6523305  36.7699295   1.7078936  63.0620313  36.5533003
   1.0481982  61.7122747  36.7399489  12.7668146  60.3198386  32.4583128
  12.2514770  61.0902990  32.6971516  12.4945455  59.6463522  33.0816190
  10.3515257  55.1648086  37.5168367   9.4956854  54.7754937  37.3374005
  10.7642209  55.2440047  36.6568152  11.8814404  52.6994430  41.9159926
  11.3779200  52.6624565  41.1027732  12.1745011  53.6087172  41.9756583
   8.1257290  52.7833159  40.9226108   8.9910287  52.5875968  40.5631998
   8.1934799  52.5543511  41.8495465  17.7402421  63.0730740  34.3936302
  16.9631863  62.7341900  33.9491464  18.4193902  63.0783363  33.7191267
  12.5554450  58.1925478  34.2842910  12.2504585  58.5071627  35.1353053
  13.5084892  58.2706898  34.3270243  11.0000881  64.3515701  35.9335864
  10.4722243  63.6168461  35.6209101  10.4988384  65.1290377  35.6875832
  15.9793727  62.5464721  41.0502910  15.3217402  63.2363983  41.1383038
  16.7834127  62.9361153  41.3936896   5.7319609  55.0135367  38.2942475
   6.3063361  54.7910549  37.5615668   6.3190592  55.0824062  39.0471076
  14.7899186  60.9009094  39.1006852  15.3031068  61.5339086  39.6028561
  15.4400410  60.3010290  38.7350212   6.0589196  57.0439828  32.3138360
   5.2226508  57.3814515  32.6347635   5.9193966  56.9088808  31.3765497
   8.0342277  51.8876616  37.0217544   7.3806689  51.5725633  36.3974159
   7.9922751  51.2652357  37.7477367   9.1453482  62.1695911  28.9370837
   8.2380543  61.9385165  29.1361986   9.6424514  61.3733530  29.1244818
  12.0521561  70.8793418  31.8567523  11.3783259  71.1825115  32.4652481
  12.4387382  71.6822499  31.5072980  11.2680017  58.3758550  41.3465192
  10.3502579  58.5973497  41.1886880  11.6840161  58.4504860  40.4876899
  12.0515065  59.7749965  36.4767872  12.7986884  60.2871363  36.1674994
  12.3206654  59.4534018  37.3372266  10.3241715  62.2708506  33.4594827
   9.4152934  61.9867539  33.5567296  10.3536799  62.6907585  32.5998133
  15.5560982  65.8815096  37.2285994  15.1023310  65.0406005  37.2851185
  14.9254949  66.5176494  37.5660774  14.4993902  56.8107082  38.4586662
  13.7616659  56.2984468  38.7896904  14.7520676  56.3707463  37.6469939
  13.9993922  67.7191592  38.1635812  14.2916896  68.2796649  37.4448178
  14.5092542  68.0120153  38.9188971  14.6005529  49.5883334  39.0528431
  14.9064406  48.7280697  38.7654346  15.3258134  50.1800954  38.8527425
   8.8726609  59.8837127  39.5604622   8.9275219  58.9310963  39.4847099
   8.0617811  60.0396566  40.0445920  10.0217803  63.8117250  30.7982905
   9.5837233  63.0953109  30.3388543  10.7628244  64.0393365  30.2367997
   6.8118969  58.5014186  37.3195001   5.9986835  58.8008357  37.7260193
   7.3077963  58.1069875  38.0369483   8.9627547  68.4971943  39.2529266
   8.9203726  68.7232790  38.3237798   9.8790246  68.2635318  39.4015067
  12.4093181  58.9656011  46.1509895  12.7642568  59.1927484  47.0104361
  13.0565312  59.2974388  45.5287150  18.1390918  62.0874447  36.8559224
  18.0008816  62.2776043  35.9280413  17.7827136  62.8493830  37.3127275
   6.3033044  56.0732542  42.9356236   6.9432423  55.9321301  42.2379199
   5.4710574  55.7867055  42.5594838  18.1660297  64.1550974  41.8670495
  18.5996804  64.0626263  42.7153549  18.8791878  64.1308474  41.2290511
   7.0793348  65.3734972  39.0491228   7.8733946  64.8785293  38.8473803
   6.3685040  64.8452836  38.6858934  11.8988192  67.7553068  43.4003596
  11.9525214  68.3244004  44.1681312  11.0302974  67.9254953  43.0357633
   3.3876111  59.5178054  35.1250981   2.4573699  59.4562510  35.3420943
   3.4833583  58.9954007  34.3287622   3.3061660  56.0432867  37.7129223
   3.5668478  56.9578200  37.6038383   4.1278833  55.5757310  37.8625835
   4.7786586  57.4570624  44.8828047   5.4509639  57.2487986  44.2340696
   3.9516372  57.2592710  44.4433279  19.0275847  64.1974674  44.4003381
  19.2211737  65.1020485  44.6462656  18.9276465  63.7382094  45.2341966
  10.6812158  54.0832565  46.8993708  10.0340073  54.7822515  46.8058184
  11.4513173  54.5168709  47.2669956  14.0890956  64.3481417  49.9744261
  13.9376462  64.1191969  49.0574345  14.0795635  65.3052019  49.9875606
  10.8576292  61.9213330  44.9590528  11.7868352  62.0724490  44.7859495
  10.4367322  62.0097351  44.1039174   9.6564624  65.9463994  42.7289065
   9.5175709  65.5782779  43.6015003   8.8679220  66.4611634  42.5573023
  10.2512776  71.0473091  34.0714602  10.4264531  70.5761134  34.8860225
   9.5645564  71.6738857  34.2995863  11.2069839  65.3245597  40.1177903
  10.8719671  65.2846367  41.0135553  10.7073785  64.6590313  39.6448313
   5.1814083  60.7313227  45.6430484   5.0433881  59.9993466  46.2442023
   6.0919006  60.6422127  45.3614672  14.1429030  62.6701631  30.3914963
  13.5258201  61.9448460  30.2948015  13.6745519  63.4310992  30.0482037
   7.8096383  60.4433186  45.1314164   8.5196002  59.8026379  45.0900782
   7.7665692  60.6946081  46.0540345  15.7983162  67.3800540  48.0520743
  15.7395708  66.6959760  47.3851326  16.2002681  68.1219530  47.6001369
   6.5225317  57.4298404  46.9509803   5.9862674  56.9789143  47.6031400
   5.9342026  57.5644313  46.2080268   4.8173861  74.1962454  40.8454462
   5.0570459  74.8280978  41.5233481   3.9743057  73.8450494  41.1319821
   5.9327576  56.8887056  29.5136267   5.0557043  56.7675856  29.1498514
   6.4085329  56.0973134  29.2615156  15.8000569  65.3440124  46.2834723
  14.9127348  65.0066045  46.4061122  16.3699120  64.6123155  46.5203488
   2.2564439  56.5654412  44.0362798   2.1722627  55.9580082  43.3013208
   1.4347145  57.0563430  44.0372294   9.3301723  70.0041576  43.2495966
   9.2571894  70.8096548  43.7615271   8.8879116  70.2033542  42.4243987
   9.1191502  69.2413346  36.7598788   8.3359024  69.7835026  36.8537012
   9.8184248  69.7587326  37.1593029  12.4288153  55.0507976  39.4032993
  12.9256852  54.2977938  39.0834063  11.6575134  55.0872292  38.8376202
  20.2817910  60.7548341  41.0451284  20.2707786  61.6373056  40.6745218
  19.4135289  60.4019892  40.8505822  11.7900406  69.9028410  45.4054125
  12.5028379  70.5375875  45.3330026  11.2990435  69.9992276  44.5894127
  13.5117933  63.8079663  36.9771416  12.5774212  63.9281125  36.8076121
  13.6894602  62.9052130  36.7131426   9.0123121  57.1925359  39.1304678
   8.6420909  56.6396399  39.8185583   9.5082214  56.5883492  38.5779678
  16.8990485  59.6496982  37.5121451  17.3650937  60.4824974  37.4381753
  17.3497985  59.1841964  38.2166709   6.8412320  67.6522854  46.2259696
   7.5421779  68.2859337  46.3789090   6.3707435  67.9937585  45.4655335
  14.9666716  65.9940803  34.5107603  15.2426560  65.8797398  35.4201477
  14.0971214  65.5958288  34.4719776  14.8707147  52.0177569  41.5512352
  13.9570227  52.2481796  41.7194559  15.3000249  52.1016013  42.4026384
  14.6413606  60.2067461  44.0512246  13.9885056  60.4543368  43.3964699
  15.0193986  59.3931599  43.7174723  11.6020780  70.2427154  38.1540416
  11.7843174  69.4248810  38.6168169  12.4253766  70.4594846  37.7165306
  11.9362945  69.1695339  35.4155465  12.4650712  68.6587794  34.8025627
  12.1991165  68.8537870  36.2800998  10.6901179  60.9487272  50.5378283
  10.0141816  60.8481401  51.2080658  11.5128813  60.7926486  51.0014280
   2.4380038  67.1859209  43.1590798   3.0233475  66.4402896  43.2918702
   2.2404876  67.4963165  44.0427462   5.2918693  70.2210456  38.1753241
   4.6229068  70.7056584  37.6917281   5.1531563  70.4679676  39.0896619
   9.4323962  72.2554199  44.7735899   9.9842270  72.4185821  45.5384984
   9.7730155  72.8458637  44.1015924   4.4088455  54.6029349  45.3757784
   4.4729781  55.4644180  44.9635181   4.3455575  53.9903351  44.6430142
   3.8840727  56.6752482  49.0230818   4.5112766  56.2929559  49.6368342
   3.0268646  56.4566684  49.3886510  14.2834836  67.0815457  50.6284553
  14.8274740  67.6945415  50.1339508  13.7021681  67.6395035  51.1451566
  12.5692349  70.2036175  41.7599581  12.4443488  69.4025915  41.2510527
  13.2271440  70.6982368  41.2713551   4.1900517  56.5584908  40.9376721
   3.4687103  57.1720875  40.7984195   4.9793773  57.0942672  40.8593367
  14.6327257  68.0045195  43.3879131  13.6857593  67.8850546  43.3157458
  14.9810031  67.1167693  43.4705393   6.9926831  53.8939334  47.2117373
   7.5161233  54.1401631  47.9743682   6.7739164  54.7259369  46.7920510
   2.3894112  56.1643009  35.0788498   2.0606818  55.2840388  34.8963604
   2.7433483  56.1090677  35.9664887  11.6373691  67.7997911  39.5883483
  11.4898653  66.8714619  39.7691053  12.4627184  67.8218002  39.1040559
   5.5035935  56.4515978  35.4463976   5.8432007  56.9801900  34.7242584
   5.9508055  56.7896385  36.2222542  15.2407813  68.6226470  40.6748356
  16.1654360  68.4169331  40.5372807  15.0723116  68.3742871  41.5837698
   8.1979376  54.8353029  44.8967044   7.8576196  54.0360842  45.2987724
   7.4918382  55.1354740  44.3243877   8.8495848  51.9202342  43.3494367
   9.6721917  51.4462820  43.2273257   9.0933911  52.6992825  43.8493053
   7.4904082  54.9490600  33.6457268   8.2112445  55.3271853  33.1420985
   6.8669386  55.6679477  33.7492246  11.6335205  55.6535749  34.5815601
  11.8498819  56.5360387  34.2804429  11.1529272  55.2621962  33.8521243
   6.3734426  58.6121462  41.1586345   6.2279007  58.9261765  42.0510627
   5.8959630  59.2306363  40.6057244   8.2330809  55.6024010  41.2067235
   8.2192378  54.7065103  40.8699533   8.9503237  55.6094674  41.8405521
  10.0856940  56.0361350  43.2520362   9.8274718  56.9578421  43.2504693
   9.5541980  55.6391785  43.9420826  15.0303129  69.1412137  36.0310448
  15.2040006  68.5758560  35.2784300  15.5232020  69.9413032  35.8489938
   7.6367705  54.4838390  36.4754805   7.7583616  53.5555037  36.6745692
   7.3469748  54.4977076  35.5633120  10.5058896  52.1693301  39.6121525
  10.5280592  52.2332634  38.6573504  10.9226955  51.3297810  39.8062031
  20.8842520  61.9048560  37.6500747  21.3273666  61.1555886  37.2519871
  20.0069030  61.8958697  37.2674479  16.0178301  68.4578902  33.1307346
  16.7129206  69.0785595  33.3494661  16.3601451  67.6074253  33.4059724
   1.6346110  60.2796703  46.9904163   0.8927846  60.4279338  47.5768794
   1.3138855  60.5404968  46.1270913  17.9169724  65.9078607  34.6594677
  18.4421048  66.2465880  33.9343997  17.8292077  64.9725623  34.4757811
   9.5789773  69.8212681  46.7884553   9.8876900  69.5761828  47.6607253
  10.3765255  70.0259320  46.3003424   9.6010385  71.9750591  39.0189930
   9.1615375  71.4826969  39.7122787  10.3518502  71.4323558  38.7782005
   2.0802724  68.1662132  39.0214558   2.9060744  67.8665903  38.6413201
   1.7296776  67.3969754  39.4704347   7.0484257  67.5188600  41.0912232
   6.4264267  66.8559305  40.7914459   7.7189124  67.5449732  40.4085879
   7.1208785  55.9970388  50.6844738   7.1696940  56.8732511  50.3022507
   7.6631299  55.4547781  50.1116381  17.6063630  66.5411511  49.9645875
  16.8159174  66.5235650  49.4250374  17.3696985  67.0799805  50.7194911
  17.7261505  63.3903977  47.2778603  17.7759510  63.2253985  48.2194126
  17.6175429  62.5231236  46.8876484   6.6097764  66.0692523  34.5670692
   6.7585885  66.7527988  33.9137365   7.4164208  66.0497613  35.0820148
  15.0165268  59.3734905  48.5937910  15.9175131  59.2341370  48.3021908
  15.0913242  59.5389360  49.5336087   9.3508073  56.7501760  47.4391096
   8.4811383  57.0435326  47.1673685   9.5867554  57.3342205  48.1598360
  19.2279702  65.8100919  47.5220625  18.9364511  66.1730900  48.3584086
  18.6151834  65.0967927  47.3433957  20.4275385  63.3753799  40.0423195
  21.2622276  63.8143603  40.2060755  20.5634513  62.8992452  39.2231441
  17.4766891  60.9333534  45.9900683  17.9521012  61.1261180  45.1819534
  16.5532456  60.9892719  45.7444066   4.3650397  62.0957701  35.5731761
   4.1196439  61.1920031  35.7711971   4.5346312  62.0974851  34.6311239
  12.0547107  52.9681377  44.9556517  12.5729051  53.7042404  44.6303005
  11.7002240  53.2745370  45.7903276   3.6346045  57.8286058  33.0717922
   2.9415290  57.9030413  32.4157958   3.3897797  57.0646402  33.5939439
  12.3059701  49.3881660  40.4757413  12.5861455  48.7204849  41.1017840
  13.0910308  49.5810755  39.9632077  10.1093170  68.5640654  32.0382440
   9.5367137  69.1830841  31.5852911  10.6825963  69.1140015  32.5722361
  16.1768560  57.8099294  44.2228988  17.1285982  57.9097391  44.2441212
  16.0072010  57.0177562  44.7327073  14.1982939  54.8954877  44.4088389
  13.6032871  55.1759890  43.7134878  13.9132636  55.3848778  45.1805130
  13.3290429  68.8477804  33.1691022  14.2621103  68.7823365  33.3723897
  13.2413642  69.6834071  32.7105554  15.9578446  68.1643674  30.1294969
  15.8792078  67.8303538  31.0230727  16.7788113  68.6565442  30.1286442
  18.6556637  61.0305413  43.3371288  18.6232957  60.0921414  43.5230972
  19.2657261  61.1089450  42.6037113  10.4939968  59.9001466  29.3798492
  11.4399073  59.7707674  29.4486910  10.1154213  59.1616128  29.8567920
  18.8051126  57.8216457  43.3829571  18.2890174  57.0374913  43.1959500
  19.6891074  57.4935173  43.5476091  16.4661853  51.5657472  39.3425384
  16.2686674  51.2572561  40.2268716  17.0761558  52.2919111  39.4723314
  24.4733187  62.0921420  42.4777325  25.2036576  61.8306708  43.0385028
  23.8640133  61.3550142  42.5179393  22.5548484  60.2329283  43.0751776
  21.8281648  60.0985248  42.4668268  22.1395771  60.5406111  43.8808494
  10.3778661  63.9519212  50.8399149  11.2981670  64.1297811  51.0339196
  10.3428244  63.0075258  50.6878848   8.6782885  57.8251443  29.3153377
   7.7714341  57.5284555  29.3916091   8.9558866  57.5281261  28.4487663
   3.3740733  61.8620247  43.4821930   3.5926743  62.7937355  43.5009964
   3.7866507  61.5028222  44.2676734  10.2944951  52.3688332  35.4697619
   9.4845679  52.0235417  35.8452865  10.9829368  52.0595876  36.0585230
  12.2235499  51.4466379  37.0921915  12.7766538  51.8661833  37.7511938
  12.4605586  50.5202127  37.1344871   8.2468599  57.4353453  52.8724679
   8.1465325  58.3847810  52.8036770   8.0290141  57.1071692  52.0000749
   7.4481670  54.6838378  29.4565356   8.3100834  55.0093276  29.7161174
   7.6332014  53.8969874  28.9438422  15.6014306  53.5566904  36.6000579
  15.0212976  54.2151708  36.2178632  15.3350239  52.7344249  36.1887997
  14.0517873  52.9571962  38.8021900  14.5517651  53.0688497  37.9936219
  14.6953481  52.6533015  39.4422708   8.1099869  60.8650592  51.6889741
   7.6266950  61.6650952  51.8953630   8.1960808  60.8758537  50.7357185
   1.3785828  62.6978971  39.6111560   1.3556516  62.7966659  38.6593443
   1.6886465  63.5444122  39.9328726   4.0373206  64.7555126  43.7258175
   4.9916460  64.7239069  43.6588106   3.8385730  64.2945750  44.5408400
   4.6272588  63.3256242  46.2928972   5.4465477  63.8200321  46.3163809
   4.9009396  62.4088211  46.2646540  14.3839184  55.7166995  35.6556928
  13.4965039  56.0016645  35.4377122  14.7993174  55.5560758  34.8084205
  17.7353721  55.7413516  39.3711267  18.5114111  56.2309968  39.6435884
  17.0101855  56.1671570  39.8283136  20.1726279  56.4541135  40.4285208
  20.7670770  56.2136871  39.7178516  20.2452863  55.7348266  41.0558744
   2.3923435  70.2974746  40.7428372   2.2577903  69.5375147  40.1766370
   1.9755497  71.0215646  40.2757161  13.5282398  65.4811669  29.7504948
  14.2318248  65.6861672  30.3662603  12.8045047  66.0488431  30.0154031
  14.3580208  61.2321531  35.8707218  14.3015410  61.6890082  35.0314850
  14.9108551  60.4712215  35.6930061  18.1685014  57.0211263  36.6957337
  17.9121948  56.6207898  37.5265545  17.5437882  57.7355057  36.5707477
  22.4797352  59.7607336  39.2028629  21.9196910  59.8300525  39.9760191
  21.8740855  59.5848320  38.4828125   5.5492561  71.1944063  40.9546815
   5.4324945  72.1389495  40.8525505   4.7285007  70.8917625  41.3432614
  15.4369095  65.9194199  31.8003408  16.2714699  65.4875397  31.6180883
  15.2753438  65.7476212  32.7280302  15.0914988  62.4226312  33.1659747
  15.0363791  62.2570583  32.2248191  14.4661043  63.1302345  33.3221937
  12.4060895  64.7275224  52.4913310  13.2752054  64.9015876  52.1299945
  11.9267646  65.5469641  52.3689039   8.4011113  51.9234421  32.7445065
   8.3889783  52.8676261  32.9013336   9.2934535  51.7404566  32.4504527
   6.5747075  71.8472325  44.1702743   7.4774322  71.8795935  44.4869238
   6.3484445  70.9172776  44.1849079   8.3300677  70.6003311  40.8312822
   7.3796308  70.6005173  40.7177194   8.6333163  69.8536046  40.3148857
  12.2163232  48.5177198  36.9991002  11.4495628  47.9635684  37.1447685
  12.6273937  48.5899066  37.8605154   4.2204994  54.8061993  51.0896183
   5.0836455  54.4498798  51.2999508   3.6470404  54.4675888  51.7771588
  24.0653370  76.4363850  41.8958584  24.7031780  76.3170597  41.1921925
  23.9474213  77.3844694  41.9546537  20.8743077  76.3891278  41.8320109
  20.5361588  76.2732343  40.9440644  21.7432845  75.9882443  41.8121115
  16.7329892  78.2426754  37.8217000  16.1694758  78.1516691  37.0533288
  16.6182287  77.4226659  38.3019493  21.3562860  77.5426130  47.7906315
  21.3451500  77.1478928  46.9186818  21.5183499  76.8092202  48.3840086
  14.2794324  79.7377946  40.6601221  15.0715616  79.3968771  40.2447520
  14.5190975  79.8472921  41.5803374  22.3129451  81.9097722  33.1331465
  21.6617431  82.4951802  32.7465479  23.1073814  82.4403917  33.1926502
  16.2385078  78.9986859  33.5318599  17.0115954  78.4515846  33.3931475
  16.5910477  79.8631108  33.7433061  18.0770121  80.3263241  46.7385499
  17.7859987  81.2308872  46.6232165  18.7127105  80.3679769  47.4529568
  19.0026328  77.7040090  43.3286858  19.5989900  77.4796112  42.6143821
  19.0601299  76.9624835  43.9312306  18.5751356  75.1579525  31.1637049
  18.8276877  74.6361047  30.4020512  17.6375915  74.9945671  31.2663733
  23.6194639  74.1615304  38.9711793  24.4057728  73.7434727  38.6202210
  23.8833343  75.0661396  39.1393441  23.7904716  79.5988154  33.6700449
  23.1550549  79.6722780  34.3821354  23.4602123  80.1881753  32.9919529
  29.0203066  74.0990537  39.8744771  29.7528238  73.5289754  40.1082601
  28.2642422  73.7112137  40.3151277  18.2947645  77.0607631  33.3661424
  18.1783903  76.3852535  34.0342509  18.4049905  76.5740005  32.5493577
  20.6379186  76.5217778  37.0708113  20.2737393  75.9948399  37.7821035
  21.4946302  76.1316247  36.8974599  26.5428486  67.8112111  44.3339380
  26.2111811  68.6807522  44.1100595  25.9474100  67.4948395  45.0133410
  20.2784673  71.5507678  32.0669462  20.4459075  72.4187914  32.4339933
  20.0881842  71.7134960  31.1430751  23.0360006  80.0124657  43.7335292
  22.7360729  80.9149696  43.6251100  22.6911065  79.7456840  44.5856445
  16.4872487  76.4638454  39.7671997  15.5622984  76.3314668  39.9749689
  16.7356901  77.2432673  40.2641939  26.4357150  72.5307197  41.4132730
  25.5274027  72.4622606  41.1191491  26.3844746  73.0079142  42.2414555
  20.2573894  74.0065336  33.0516129  20.1373519  74.4522386  33.8901609
  19.5626482  74.3550653  32.4929667  13.8481298  76.1071727  40.6015786
  13.9773680  76.3606206  41.5155198  13.1678750  76.6999435  40.2820441
  18.0180786  86.7768977  36.7006260  17.9404815  87.7276802  36.7794741
  17.4142429  86.4314850  37.3581186  20.5098015  73.9496843  49.3567627
  19.7331350  74.5090763  49.3470492  21.1488579  74.4353626  49.8782497
  28.3018796  70.7323636  43.1910604  27.6593176  71.0256169  42.5450398
  27.7973725  70.6176556  43.9963800  25.9558960  74.4786809  33.8796463
  26.8676816  74.7114195  33.7044160  25.4468607  75.0623853  33.3171541
  18.7644388  76.7582296  48.9185594  19.5059072  77.2967340  48.6420418
  18.0581373  77.3848585  49.0757146  24.2399727  78.9011437  47.5157755
  24.6483083  78.4593847  46.7712388  23.5176989  78.3264064  47.7691948
  20.5930797  73.8384043  44.8891312  21.4391993  74.2623457  45.0325961
  20.5329435  73.1817668  45.5829876  24.5628542  79.4612627  41.2710044
  23.9337405  79.6258341  40.5686112  24.1754204  79.8754237  42.0421008
  28.4417774  80.3967065  38.6254408  27.7568812  80.7765966  38.0751441
  28.5261623  81.0062392  39.3586356  23.7430243  71.4988412  46.5472486
  23.4991175  72.2530472  46.0106762  24.0190173  71.8773759  47.3819733
  25.6968706  78.0427024  45.2249752  25.9085601  78.6858784  44.5484133
  25.6498454  77.2089341  44.7571682  23.2994935  70.6544845  42.1286324
  22.4379414  70.9526098  42.4203061  23.3257369  70.8715244  41.1967356
  20.1156504  79.1987035  38.5360129  20.5794850  79.4774738  37.7464752
  19.8513302  78.2970480  38.3533220  17.0080585  78.7458517  41.4739893
  17.5781942  79.1745785  40.8357377  17.5988697  78.4641101  42.1724078
  19.0525390  75.3210188  35.3449695  19.7549433  75.7731231  35.8123621
  18.7206019  74.6794006  35.9729588  17.5005752  73.9121944  49.7200904
  16.8704412  74.5938225  49.9536301  17.3941839  73.8005026  48.7754042
  12.7950724  73.5793740  40.6466828  12.0049778  73.8351269  40.1706939
  13.2861971  74.3942078  40.7518869  26.8114534  80.9198979  43.3972109
  27.6331977  80.5179167  43.1154791  26.8076936  80.8167214  44.3488225
  14.7465469  73.9438320  37.6050305  13.9496633  74.0557014  38.1233801
  14.5191062  74.2824972  36.7391195  20.5771137  80.4683023  45.5532819
  20.6415570  80.9303430  46.3890991  19.8682061  79.8380388  45.6815129
  11.0788427  73.8324231  43.0781819  11.3296465  74.7171241  43.3439395
  11.6147975  73.6528832  42.3056911  34.9020527  77.2637728  39.7457080
  34.1484235  76.6945126  39.5901085  35.0368068  77.2300392  40.6927715
  20.2919155  82.1351130  35.4211800  20.1564829  82.9802666  35.8496648
  20.8328967  82.3370408  34.6577734  16.7786494  68.2142710  52.0826155
  16.3853440  67.6608909  52.7573799  17.5952635  68.5253289  52.4732673
  13.7448552  79.6526568  35.9939725  14.2573073  80.4469819  36.1445290
  14.3971265  78.9552859  35.9273326  15.5543437  82.7692325  38.0762478
  15.7310065  83.6910289  37.8883462  16.3500270  82.4550744  38.5056858
  19.6954455  69.6300589  49.6746412  20.4364169  70.2307742  49.5950874
  19.9272378  68.8878227  49.1164454  14.8395793  74.8156956  47.9524641
  14.7249308  73.9142214  48.2531740  13.9840311  75.0620653  47.6009458
  21.9187631  82.7574697  49.5512142  21.4751485  81.9711075  49.2333046
  22.5804845  82.9453847  48.8856033  16.6774752  84.2870498  44.0772820
  17.2282177  84.1587562  43.3049814  15.8386228  84.5865387  43.7267713
  24.0168869  83.0377497  47.5793543  23.9987344  83.8586378  47.0873812
  24.9388789  82.9131572  47.8043684  20.4741923  80.5521626  48.4217052
  21.0070260  79.7909914  48.1916359  19.9456004  80.2595278  49.1641206
  23.6411618  65.6581692  43.9510693  23.2975888  66.5483334  43.8749804
  24.0090581  65.4683350  43.0880278  11.7097469  77.9815223  36.7699295
  12.5472691  78.3912231  36.5533003  11.8875737  77.0414665  36.7399489
  23.6061901  75.6490303  32.4583128  23.0908524  76.4194908  32.6971516
  23.3339209  74.9755439  33.0816190  21.1909012  70.4940004  37.5168367
  20.3350608  70.1046854  37.3374005  21.6035964  70.5731965  36.6568152
  22.7208159  68.0286347  41.9159926  22.2172954  67.9916482  41.1027732
  23.0138765  68.9379090  41.9756583  18.9651044  68.1125077  40.9226108
  19.8304041  67.9167886  40.5631998  19.0328553  67.8835429  41.8495465
  28.5796175  78.4022658  34.3936302  27.8025618  78.0633817  33.9491464
  29.2587656  78.4075281  33.7191267  23.3948204  73.5217395  34.2842910
  23.0898340  73.8363544  35.1353053  24.3478646  73.5998815  34.3270243
  21.8394636  79.6807619  35.9335864  21.3115998  78.9460378  35.6209101
  21.3382139  80.4582295  35.6875832  26.8187482  77.8756639  41.0502910
  26.1611156  78.5655901  41.1383038  27.6227881  78.2653071  41.3936896
  16.5713364  70.3427285  38.2942475  17.1457115  70.1202466  37.5615668
  17.1584346  70.4115979  39.0471076  25.6292941  76.2301012  39.1006852
  26.1424823  76.8631004  39.6028561  26.2794165  75.6302207  38.7350212
  16.8982951  72.3731746  32.3138360  16.0620263  72.7106432  32.6347635
  16.7587720  72.2380726  31.3765497  18.8736031  67.2168534  37.0217544
  18.2200444  66.9017551  36.3974159  18.8316505  66.5944274  37.7477367
  19.9847236  77.4987829  28.9370837  19.0774298  77.2677082  29.1361986
  20.4818268  76.7025448  29.1244818  22.8915315  86.2085336  31.8567523
  22.2177014  86.5117033  32.4652481  23.2781137  87.0114416  31.5072980
  22.1073772  73.7050467  41.3465192  21.1896333  73.9265414  41.1886880
  22.5233915  73.7796778  40.4876899  22.8908819  75.1041883  36.4767872
  23.6380638  75.6163280  36.1674994  23.1600409  74.7825936  37.3372266
  21.1635470  77.6000424  33.4594827  20.2546689  77.3159457  33.5567296
  21.1930553  78.0199502  32.5998133  26.3954737  81.2107013  37.2285994
  25.9417064  80.3697923  37.2851185  25.7648704  81.8468412  37.5660774
  25.3387657  72.1398999  38.4586662  24.6010413  71.6276385  38.7896904
  25.5914430  71.6999381  37.6469939  24.8387676  83.0483510  38.1635812
  25.1310651  83.6088567  37.4448178  25.3486297  83.3412071  38.9188971
  25.4399284  64.9175251  39.0528431  25.7458161  64.0572615  38.7654346
  26.1651889  65.5092871  38.8527425  11.7323640  75.3205938  37.4410029
  11.5348040  74.7275299  36.7161095  11.1770304  75.0158148  38.1585968
  19.7120364  75.2129044  39.5604622  19.7668973  74.2602881  39.4847099
  18.9011566  75.3688483  40.0445920  20.8611557  79.1409167  30.7982905
  20.4230987  78.4245026  30.3388543  21.6021998  79.3685282  30.2367997
  17.6512724  73.8306104  37.3195001  16.8380589  74.1300275  37.7260193
  18.1471718  73.4361793  38.0369483  19.8021301  83.8263861  39.2529266
  19.7597480  84.0524707  38.3237798  20.7184000  83.5927236  39.4015067
  23.2486935  74.2947929  46.1509895  23.6036323  74.5219402  47.0104361
  23.8959066  74.6266305  45.5287150  28.9784672  77.4166364  36.8559224
  28.8402571  77.6067960  35.9280413  28.6220891  78.1785747  37.3127275
  17.1426798  71.4024460  42.9356236  17.7826178  71.2613219  42.2379199
  16.3104329  71.1158973  42.5594838  29.0054052  79.4842891  41.8670495
  29.4390558  79.3918181  42.7153549  29.7185632  79.4600392  41.2290511
  17.9187102  80.7026890  39.0491228  18.7127701  80.2077210  38.8473803
  17.2078795  80.1744753  38.6858934  22.7381947  83.0844986  43.4003596
  22.7918969  83.6535922  44.1681312  21.8696728  83.2546871  43.0357633
  14.2269866  74.8469972  35.1250981  13.2967454  74.7854427  35.3420943
  14.3227338  74.3245925  34.3287622  14.1455415  71.3724785  37.7129223
  14.4062232  72.2870118  37.6038383  14.9672587  70.9049227  37.8625835
  15.6180340  72.7862542  44.8828047  16.2903393  72.5779904  44.2340696
  14.7910127  72.5884628  44.4433279  29.8669601  79.5266592  44.4003381
  30.0605491  80.4312403  44.6462656  29.7670219  79.0674011  45.2341966
  21.5205912  69.4124483  46.8993708  20.8733827  70.1114432  46.8058184
  22.2906927  69.8460627  47.2669956  24.9284710  79.6773335  49.9744261
  24.7770216  79.4483887  49.0574345  24.9189389  80.6343936  49.9875606
  21.6970046  77.2505248  44.9590528  22.6262106  77.4016407  44.7859495
  21.2761076  77.3389268  44.1039174  20.4958378  81.2755912  42.7289065
  20.3569464  80.9074696  43.6015003  19.7072974  81.7903551  42.5573023
  21.0906530  86.3765009  34.0714602  21.2658286  85.9053052  34.8860225
  20.4039318  87.0030775  34.2995863  22.0463593  80.6537515  40.1177903
  21.7113426  80.6138285  41.0135553  21.5467539  79.9882231  39.6448313
  16.0207837  76.0605145  45.6430484  15.8827635  75.3285384  46.2442023
  16.9312761  75.9714045  45.3614672  24.9822785  77.9993549  30.3914963
  24.3651956  77.2740377  30.2948015  24.5139273  78.7602909  30.0482037
  18.6490138  75.7725104  45.1314164  19.3589756  75.1318296  45.0900782
  18.6059446  76.0237999  46.0540345  26.6376917  82.7092457  48.0520743
  26.5789463  82.0251678  47.3851326  27.0396435  83.4511447  47.6001369
  17.3619072  72.7590322  46.9509803  16.8256429  72.3081060  47.6031400
  16.7735780  72.8936231  46.2080268  15.6567615  89.5254371  40.8454462
  15.8964214  90.1572895  41.5233481  14.8136812  89.1742411  41.1319821
  16.7721331  72.2178973  29.5136267  15.8950797  72.0967774  29.1498514
  17.2479084  71.4265052  29.2615156  26.6394324  80.6732041  46.2834723
  25.7521103  80.3357963  46.4061122  27.2092875  79.9415073  46.5203488
   8.2923471  77.0056133  39.6077774   8.9794511  76.6917863  39.0198790
   8.1371600  77.9097498  39.3345026  13.0958193  71.8946330  44.0362798
  13.0116382  71.2871999  43.3013208  12.2740900  72.3855348  44.0372294
  20.1695477  85.3333494  43.2495966  20.0965649  86.1388465  43.7615271
  19.7272870  85.5325460  42.4243987  19.9585257  84.5705264  36.7598788
  19.1752779  85.1126944  36.8537012  20.6578002  85.0879243  37.1593029
  23.2681907  70.3799893  39.4032993  23.7650607  69.6269856  39.0834063
  22.4968889  70.4164210  38.8376202  31.1211664  76.0840259  41.0451284
  31.1101541  76.9664974  40.6745218  30.2529044  75.7311810  40.8505822
  22.6294161  85.2320328  45.4054125  23.3422133  85.8667793  45.3330026
  22.1384189  85.3284194  44.5894127  24.3511688  79.1371580  36.9771416
  23.4167966  79.2573043  36.8076121  24.5288356  78.2344047  36.7131426
  19.8516876  72.5217276  39.1304678  19.4814663  71.9688317  39.8185583
  20.3475968  71.9175410  38.5779678  27.7384239  74.9788900  37.5121451
  28.2044691  75.8116891  37.4381753  28.1891740  74.5133881  38.2166709
  17.6806074  82.9814771  46.2259696  18.3815534  83.6151254  46.3789090
  17.2101189  83.3229503  45.4655335  25.8060470  81.3232721  34.5107603
  26.0820314  81.2089316  35.4201477  24.9364969  80.9250206  34.4719776
  25.7100902  67.3469487  41.5512352  24.7963982  67.5773714  41.7194559
  26.1394003  67.4307931  42.4026384  25.4807360  75.5359379  44.0512246
  24.8278811  75.7835286  43.3964699  25.8587740  74.7223517  43.7174723
  22.4414534  85.5719072  38.1540416  22.6236929  84.7540728  38.6168169
  23.2647520  85.7886764  37.7165306  22.7756700  84.4987257  35.4155465
  23.3044466  83.9879712  34.8025627  23.0384919  84.1829787  36.2800998
  21.5294933  76.2779190  50.5378283  20.8535570  76.1773319  51.2080658
  22.3522567  76.1218403  51.0014280  13.2773792  82.5151126  43.1590798
  13.8627229  81.7694814  43.2918702  13.0798631  82.8255083  44.0427462
  16.1312448  85.5502374  38.1753241  15.4622823  86.0348501  37.6917281
  15.9925317  85.7971594  39.0896619   7.8691447  75.0856726  41.8795241
   7.9075547  74.5520317  42.6732359   7.3631740  74.5591932  41.2606219
  20.2717716  87.5846117  44.7735899  20.8236024  87.7477739  45.5384984
  20.6123910  88.1750555  44.1015924  15.2482209  69.9321267  45.3757784
  15.3123536  70.7936098  44.9635181  15.1849330  69.3195269  44.6430142
  14.7234482  72.0044400  49.0230818  15.3506521  71.6221477  49.6368342
  13.8662401  71.7858601  49.3886510  25.1228591  82.4107375  50.6284553
  25.6668495  83.0237333  50.1339508  24.5415435  82.9686953  51.1451566
  11.5000025  73.8120829  34.9549173  11.7953466  72.9031507  34.9016226
  10.5988061  73.7908568  34.6330175  23.4086104  85.5328093  41.7599581
  23.2837243  84.7317833  41.2510527  24.0665195  86.0274286  41.2713551
  15.0294272  71.8876825  40.9376721  14.3080857  72.5012793  40.7984195
  15.8187528  72.4234590  40.8593367  25.4721012  83.3337113  43.3879131
  24.5251347  83.2142464  43.3157458  25.8203785  82.4459611  43.4705393
  17.8320585  69.2231252  47.2117373  18.3554987  69.4693548  47.9743682
  17.6132919  70.0551287  46.7920510  13.2287866  71.4934926  35.0788498
  12.9000572  70.6132305  34.8963604  13.5827237  71.4382595  35.9664887
  22.4767445  83.1289829  39.5883483  22.3292408  82.2006536  39.7691053
  23.3020939  83.1509920  39.1040559  16.3429689  71.7807896  35.4463976
  16.6825762  72.3093817  34.7242584  16.7901810  72.1188302  36.2222542
  26.0801567  83.9518388  40.6748356  27.0048115  83.7461249  40.5372807
  25.9116870  83.7034789  41.5837698  19.0373130  70.1644947  44.8967044
  18.6969951  69.3652760  45.2987724  18.3312137  70.4646658  44.3243877
  19.6889602  67.2494259  43.3494367  20.5115671  66.7754737  43.2273257
  19.9327666  68.0284743  43.8493053  18.3297837  70.2782518  33.6457268
  19.0506199  70.6563770  33.1420985  17.7063141  70.9971394  33.7492246
  22.4728960  70.9827667  34.5815601  22.6892574  71.8652305  34.2804429
  21.9923027  70.5913880  33.8521243  17.2128181  73.9413380  41.1586345
  17.0672762  74.2553683  42.0510627  16.7353385  74.5598280  40.6057244
  19.0724564  70.9315928  41.2067235  19.0586133  70.0357021  40.8699533
  19.7896992  70.9386592  41.8405521  20.9250694  71.3653268  43.2520362
  20.6668472  72.2870339  43.2504693  20.3935735  70.9683703  43.9420826
  25.8696883  84.4704055  36.0310448  26.0433761  83.9050478  35.2784300
  26.3625774  85.2704950  35.8489938  11.6873843  76.4818724  44.0974006
  11.1427311  77.2578532  44.2294281  12.5653193  76.8289529  43.9393128
  18.4761460  69.8130308  36.4754805  18.5977371  68.8846954  36.6745692
  18.1863502  69.8268994  35.5633120  21.3452650  67.4985219  39.6121525
  21.3674347  67.5624552  38.6573504  21.7620709  66.6589727  39.8062031
  31.7236274  77.2340478  37.6500747  32.1667420  76.4847803  37.2519871
  30.8462785  77.2250614  37.2674479  26.8572056  83.7870820  33.1307346
  27.5522960  84.4077512  33.3494661  27.1995206  82.9366171  33.4059724
  12.4739865  75.6088621  46.9904163  11.7321601  75.7571256  47.5768794
  12.1532609  75.8696886  46.1270913  28.7563479  81.2370525  34.6594677
  29.2814803  81.5757798  33.9343997  28.6685831  80.3017540  34.4757811
  20.4183528  85.1504599  46.7884553  20.7270654  84.9053746  47.6607253
  21.2159010  85.3551237  46.3003424  20.4404140  87.3042508  39.0189930
  20.0009130  86.8118887  39.7122787  21.1912257  86.7615476  38.7782005
  12.9196479  83.4954049  39.0214558  13.7454498  83.1957821  38.6413201
  12.5690531  82.7261672  39.4704347  17.8878012  82.8480517  41.0912232
  17.2658021  82.1851222  40.7914459  18.5582879  82.8741649  40.4085879
  11.1205084  81.4140376  39.9803492  10.2836992  80.9862550  39.7987493
  11.0928729  81.6072819  40.9174283  17.9602539  71.3262305  50.6844738
  18.0090695  72.2024428  50.3022507  18.5025053  70.7839699  50.1116381
  28.4457385  81.8703429  49.9645875  27.6552929  81.8527568  49.4250374
  28.2090739  82.4091722  50.7194911  28.5655260  78.7195895  47.2778603
  28.6153265  78.5545903  48.2194126  28.4569183  77.8523154  46.8876484
  17.4491519  81.3984441  34.5670692  17.5979639  82.0819905  33.9137365
  18.2557962  81.3789531  35.0820148  25.8559022  74.7026823  48.5937910
  26.7568885  74.5633288  48.3021908  25.9306997  74.8681278  49.5336087
  20.1901828  72.0793678  47.4391096  19.3205137  72.3727244  47.1673685
  20.4261308  72.6634123  48.1598360  30.0673457  81.1392837  47.5220625
  29.7758265  81.5022817  48.3584086  29.4545588  80.4259845  47.3433957
  31.2669139  78.7045716  40.0423195  32.1016031  79.1435520  40.2060755
  31.4028268  78.2284370  39.2231441  28.3160645  76.2625451  45.9900683
  28.7914767  76.4553098  45.1819534  27.3926210  76.3184637  45.7444066
  15.2044152  77.4249618  35.5731761  14.9590194  76.5211948  35.7711971
  15.3740066  77.4266769  34.6311239  22.8940862  68.2973295  44.9556517
  23.4122805  69.0334322  44.6303005  22.5395994  68.6037288  45.7903276
  14.4739799  73.1577976  33.0717922  13.7809044  73.2322331  32.4157958
  14.2291551  72.3938320  33.5939439  23.1453456  64.7173577  40.4757413
  23.4255209  64.0496766  41.1017840  23.9304063  64.9102673  39.9632077
  20.9486924  83.8932571  32.0382440  20.3760891  84.5122758  31.5852911
  21.5219718  84.4431933  32.5722361  27.0162314  73.1391211  44.2228988
  27.9679737  73.2389309  44.2441212  26.8465764  72.3469480  44.7327073
  25.0376694  70.2246795  44.4088389  24.4426626  70.5051807  43.7134878
  24.7526390  70.7140695  45.1805130  24.1684184  84.1769721  33.1691022
  25.1014857  84.1115283  33.3723897  24.0807397  85.0125988  32.7105554
  26.7972201  83.4935592  30.1294969  26.7185832  83.1595455  31.0230727
  27.6181867  83.9857360  30.1286442  29.4950392  76.3597331  43.3371288
  29.4626712  75.4213332  43.5230972  30.1051015  76.4381368  42.6037113
  21.3333723  75.2293384  29.3798492  22.2792827  75.0999592  29.4486910
  20.9547968  74.4908046  29.8567920  29.6444880  73.1508374  43.3829571
  29.1283929  72.3666831  43.1959500  30.5284829  72.8227091  43.5476091
  27.3055607  66.8949390  39.3425384  27.1080428  66.5864478  40.2268716
  27.9155313  67.6211029  39.4723314  35.3126942  77.4213338  42.4777325
  36.0430330  77.1598626  43.0385028  34.7033887  76.6842060  42.5179393
  33.3942239  75.5621200  43.0751776  32.6675402  75.4277165  42.4668268
  32.9789526  75.8698029  43.8808494  21.2172415  79.2811130  50.8399149
  22.1375425  79.4589729  51.0339196  21.1821998  78.3367176  50.6878848
  19.5176640  73.1543360  29.3153377  18.6108095  72.8576473  29.3916091
  19.7952621  72.8573178  28.4487663  10.4354580  74.4749724  39.7652424
  10.1157365  73.6215032  39.4726798   9.8888008  74.6898302  40.5210391
  14.2134488  77.1912165  43.4821930  14.4320498  78.1229273  43.5009964
  14.6260262  76.8320139  44.2676734  21.1338706  67.6980250  35.4697619
  20.3239434  67.3527335  35.8452865  21.8223122  67.3887794  36.0585230
  23.0629254  66.7758297  37.0921915  23.6160292  67.1953750  37.7511938
  23.2999340  65.8494045  37.1344871  19.0862353  72.7645371  52.8724679
  18.9859080  73.7139728  52.8036770  18.8683895  72.4363609  52.0000749
  18.2875424  70.0130296  29.4565356  19.1494588  70.3385194  29.7161174
  18.4725769  69.2261792  28.9438422  10.3042840  78.0952635  41.7345545
   9.6106312  77.6806588  41.2215500  11.0515831  78.1373172  41.1378964
  26.4408061  68.8858822  36.6000579  25.8606730  69.5443626  36.2178632
  26.1743994  68.0636167  36.1887997  24.8911627  68.2863880  38.8021900
  25.3911406  68.3980414  37.9936219  25.5347235  67.9824933  39.4422708
  18.9493623  76.1942509  51.6889741  18.4660705  76.9942870  51.8953630
  19.0354562  76.2050454  50.7357185  12.2179583  78.0270889  39.6111560
  12.1950271  78.1258576  38.6593443  12.5280219  78.8736040  39.9328726
  14.8766961  80.0847044  43.7258175  15.8310214  80.0530986  43.6588106
  14.6779484  79.6237668  44.5408400  15.4666343  78.6548160  46.2928972
  16.2859232  79.1492239  46.3163809  15.7403150  77.7380128  46.2646540
  25.2232939  71.0458912  35.6556928  24.3358794  71.3308563  35.4377122
  25.6386928  70.8852676  34.8084205  28.5747475  71.0705433  39.3711267
  29.3507865  71.5601886  39.6435884  27.8495609  71.4963488  39.8283136
  31.0120034  71.7833053  40.4285208  31.6064525  71.5428789  39.7178516
  31.0846617  71.0640183  41.0558744  13.2317189  85.6266664  40.7428372
  13.0971657  84.8667064  40.1766370  12.8149252  86.3507563  40.2757161
  24.3676152  80.8103587  29.7504948  25.0712003  81.0153590  30.3662603
  23.6438801  81.3780349  30.0154031  25.1973963  76.5613448  35.8707218
  25.1409164  77.0182000  35.0314850  25.7502305  75.8004133  35.6930061
  29.0078769  72.3503180  36.6957337  28.7515703  71.9499816  37.5265545
  28.3831637  73.0646974  36.5707477  33.3191106  75.0899254  39.2028629
  32.7590664  75.1592443  39.9760191  32.7134610  74.9140238  38.4828125
  16.3886315  86.5235981  40.9546815  16.2718699  87.4681413  40.8525505
  15.5678762  86.2209542  41.3432614  26.2762850  81.2486116  31.8003408
  27.1108454  80.8167315  31.6180883  26.1147193  81.0768130  32.7280302
  25.9308742  77.7518230  33.1659747  25.8757546  77.5862501  32.2248191
  25.3054797  78.4594263  33.3221937  10.7201257  72.9886294  46.9921169
  11.3660121  72.4785248  47.4808394  10.5118408  73.7254976  47.5664594
  23.2454649  80.0567142  52.4913310  24.1145809  80.2307794  52.1299945
  22.7661401  80.8761558  52.3689039  19.2404867  67.2526339  32.7445065
  19.2283537  68.1968179  32.9013336  20.1328289  67.0696484  32.4504527
  17.4140829  87.1764243  44.1702743  18.3168076  87.2087853  44.4869238
  17.1878199  86.2464693  44.1849079  19.1694431  85.9295229  40.8312822
  18.2190062  85.9297091  40.7177194  19.4726918  85.1827964  40.3148857
  23.0556987  63.8469115  36.9991002  22.2889383  63.2927602  37.1447685
  23.4667692  63.9190984  37.8605154  15.0598748  70.1353911  51.0896183
  15.9230210  69.7790716  51.2999508  14.4864159  69.7967806  51.7771588
  34.9047125  91.7655767  41.8958584  35.5425535  91.6462515  41.1921925
  34.7867968  92.7136611  41.9546537  31.7136831  91.7183196  41.8320109
  31.3755343  91.6024260  40.9440644  32.5826599  91.3174361  41.8121115
  27.5723647  93.5718672  37.8217000  27.0088512  93.4808609  37.0533288
  27.4576042  92.7518576  38.3019493  32.1956614  92.8718047  47.7906315
  32.1845255  92.4770846  46.9186818  32.3577254  92.1384120  48.3840086
  25.1188079  95.0669864  40.6601221  25.9109371  94.7260688  40.2447520
  25.3584729  95.1764839  41.5803374  33.1523206  97.2389640  33.1331465
  32.5011185  97.8243720  32.7465479  33.9467568  97.7695835  33.1926502
  27.0778833  94.3278777  33.5318599  27.8509709  93.7807764  33.3931475
  27.4304232  95.1923026  33.7433061  28.9163875  95.6555159  46.7385499
  28.6253741  96.5600790  46.6232165  29.5520860  95.6971687  47.4529568
  29.8420082  93.0332008  43.3286858  30.4383654  92.8088030  42.6143821
  29.8995054  92.2916753  43.9312306  29.4145111  90.4871443  31.1637049
  29.6670631  89.9652964  30.4020512  28.4769670  90.3237588  31.2663733
  34.4588393  89.4907221  38.9711793  35.2451483  89.0726644  38.6202210
  34.7227098  90.3953313  39.1393441  34.6298471  94.9280072  33.6700449
  33.9944304  95.0014698  34.3821354  34.2995877  95.5173670  32.9919529
  39.8596821  89.4282455  39.8744771  40.5921992  88.8581671  40.1082601
  39.1036176  89.0404055  40.3151277  29.1341399  92.3899549  33.3661424
  29.0177657  91.7144452  34.0342509  29.2443659  91.9031923  32.5493577
  31.4772940  91.8509696  37.0708113  31.1131147  91.3240317  37.7821035
  32.3340056  91.4608165  36.8974599  37.3822241  83.1404029  44.3339380
  37.0505566  84.0099440  44.1100595  36.7867854  82.8240313  45.0133410
  31.1178427  86.8799596  32.0669462  31.2852830  87.7479832  32.4339933
  30.9275596  87.0426877  31.1430751  33.8753760  95.3416575  43.7335292
  33.5754484  96.2441613  43.6251100  33.5304820  95.0748758  44.5856445
  27.3266242  91.7930371  39.7671997  26.4016738  91.6606586  39.9749689
  27.5750655  92.5724591  40.2641939  37.2750904  87.8599115  41.4132730
  36.3667782  87.7914523  41.1191491  37.2238500  88.3371060  42.2414555
  31.0967648  89.3357253  33.0516129  30.9767273  89.7814304  33.8901609
  30.4020236  89.6842571  32.4929667  24.6875053  91.4363645  40.6015786
  24.8167434  91.6898124  41.5155198  24.0072504  92.0291353  40.2820441
  31.3491770  89.2788760  49.3567627  30.5725104  89.8382681  49.3470492
  31.9882333  89.7645543  49.8782497  39.1412551  86.0615553  43.1910604
  38.4986931  86.3548086  42.5450398  38.6367479  85.9468474  43.9963800
  36.7952714  89.8078726  33.8796463  37.7070570  90.0406113  33.7044160
  36.2862361  90.3915771  33.3171541  29.6038142  92.0874214  48.9185594
  30.3452827  92.6259258  48.6420418  28.8975128  92.7140502  49.0757146
  35.0793482  94.2303354  47.5157755  35.4876838  93.7885765  46.7712388
  34.3570743  93.6555982  47.7691948  31.4324552  89.1675961  44.8891312
  32.2785747  89.5915375  45.0325961  31.3723190  88.5109585  45.5829876
  35.4022297  94.7904545  41.2710044  34.7731159  94.9550259  40.5686112
  35.0147959  95.2046154  42.0421008  39.2811528  95.7258983  38.6254408
  38.5962567  96.1057884  38.0751441  39.3655378  96.3354309  39.3586356
  34.5823997  86.8280329  46.5472486  34.3384929  87.5822390  46.0106762
  34.8583928  87.2065677  47.3819733  36.5362460  93.3718942  45.2249752
  36.7479355  94.0150702  44.5484133  36.4892208  92.5381258  44.7571682
  30.9550258  94.5278953  38.5360129  31.4188604  94.8066656  37.7464752
  30.6907057  93.6262397  38.3533220  27.8474340  94.0750434  41.4739893
  28.4175697  94.5037703  40.8357377  28.4382451  93.7933019  42.1724078
  29.8919145  90.6502105  35.3449695  30.5943188  91.1023149  35.8123621
  29.5599773  90.0085924  35.9729588  28.3399506  89.2413862  49.7200904
  27.7098167  89.9230143  49.9536301  28.2335594  89.1296944  48.7754042
  23.6344478  88.9085658  40.6466828  22.8443532  89.1643186  40.1706939
  24.1255726  89.7233996  40.7518869  37.6508288  96.2490897  43.3972109
  38.4725732  95.8471084  43.1154791  37.6470691  96.1459131  44.3488225
  25.5859224  89.2730237  37.6050305  24.7890387  89.3848931  38.1233801
  25.3584816  89.6116889  36.7391195  31.4164891  95.7974940  45.5532819
  31.4809324  96.2595348  46.3890991  30.7075815  95.1672305  45.6815129
  21.9182181  89.1616148  43.0781819  22.1690220  90.0463158  43.3439395
  22.4541730  88.9820750  42.3056911  45.7414281  92.5929646  39.7457080
  44.9877989  92.0237044  39.5901085  45.8761822  92.5592310  40.6927715
  31.1312909  97.4643048  35.4211800  30.9958584  98.3094584  35.8496648
  31.6722722  97.6662326  34.6577734  27.6180249  83.5434628  52.0826155
  27.2247194  82.9900826  52.7573799  28.4346389  83.8545206  52.4732673
  24.5842307  94.9818486  35.9939725  25.0966827  95.7761736  36.1445290
  25.2365019  94.2844776  35.9273326  26.3937191  98.0984242  38.0762478
  26.5703820  99.0202207  37.8883462  27.1894025  97.7842661  38.5056858
  30.5348210  84.9592507  49.6746412  31.2757923  85.5599660  49.5950874
  30.7666133  84.2170145  49.1164454  25.6789548  90.1448874  47.9524641
  25.5643063  89.2434131  48.2531740  24.8234066  90.3912571  47.6009458
  32.7581386  98.0866614  49.5512142  32.3145240  97.3002993  49.2333046
  33.4198599  98.2745765  48.8856033  27.5168507  99.6162416  44.0772820
  28.0675932  99.4879479  43.3049814  26.6779983  99.9157305  43.7267713
  34.8562624  98.3669414  47.5793543  34.8381099  99.1878295  47.0873812
  35.7782544  98.2423490  47.8043684  31.3135678  95.8813544  48.4217052
  31.8464015  95.1201832  48.1916359  30.7849759  95.5887196  49.1641206
  34.4805373  80.9873610  43.9510693  34.1369642  81.8775251  43.8749804
  34.8484335  80.7975267  43.0880278  22.5491223  93.3107140  36.7699295
  23.3866445  93.7204149  36.5533003  22.7269491  92.3706582  36.7399489
  34.4455655  90.9782221  32.4583128  33.9302279  91.7486826  32.6971516
  34.1732964  90.3047357  33.0816190  32.0302766  85.8231922  37.5168367
  31.1744363  85.4338772  37.3374005  32.4429718  85.9023882  36.6568152
  29.8044799  83.4416995  40.9226108  30.6697796  83.2459803  40.5631998
  29.8722308  83.2127346  41.8495465  39.4189930  93.7314576  34.3936302
  38.6419372  93.3925735  33.9491464  40.0981411  93.7367199  33.7191267
  34.2341959  88.8509313  34.2842910  33.9292094  89.1655462  35.1353053
  35.1872401  88.9290733  34.3270243  32.6788390  95.0099536  35.9335864
  32.1509752  94.2752296  35.6209101  32.1775893  95.7874213  35.6875832
  37.6581236  93.2048557  41.0502910  37.0004911  93.8947818  41.1383038
  38.4621636  93.5944989  41.3936896  27.4107118  85.6719203  38.2942475
  27.9850870  85.4494384  37.5615668  27.9978100  85.7407897  39.0471076
  36.4686695  91.5592929  39.1006852  36.9818577  92.1922921  39.6028561
  37.1187919  90.9594125  38.7350212  27.7376705  87.7023664  32.3138360
  26.9014017  88.0398350  32.6347635  27.5981475  87.5672643  31.3765497
  29.7129786  82.5460451  37.0217544  29.0594198  82.2309469  36.3974159
  29.6710260  81.9236192  37.7477367  30.8240991  92.8279747  28.9370837
  29.9168052  92.5969000  29.1361986  31.3212023  92.0317366  29.1244818
  33.7309070 101.5377254  31.8567523  33.0570768 101.8408951  32.4652481
  34.1174891 102.3406334  31.5072980  32.9467526  89.0342385  41.3465192
  32.0290088  89.2557332  41.1886880  33.3627670  89.1088696  40.4876899
  33.7302574  90.4333801  36.4767872  34.4774393  90.9455198  36.1674994
  33.9994163  90.1117853  37.3372266  32.0029224  92.9292341  33.4594827
  31.0940443  92.6451374  33.5567296  32.0324308  93.3491420  32.5998133
  37.2348491  96.5398931  37.2285994  36.7810819  95.6989841  37.2851185
  36.6042458  97.1760329  37.5660774  36.1781411  87.4690917  38.4586662
  35.4404168  86.9568303  38.7896904  36.4308185  87.0291299  37.6469939
  35.6781431  98.3775428  38.1635812  35.9704405  98.9380485  37.4448178
  36.1880051  98.6703989  38.9188971  36.2793038  80.2467169  39.0528431
  36.5851915  79.3864532  38.7654346  37.0045643  80.8384789  38.8527425
  22.5717394  90.6497856  37.4410029  22.3741794  90.0567216  36.7161095
  22.0164058  90.3450066  38.1585968  30.5514118  90.5420962  39.5604622
  30.6062728  89.5894798  39.4847099  29.7405320  90.6980401  40.0445920
  31.7005312  94.4701085  30.7982905  31.2624742  93.7536944  30.3388543
  32.4415753  94.6977200  30.2367997  28.4906478  89.1598022  37.3195001
  27.6774344  89.4592192  37.7260193  28.9865472  88.7653711  38.0369483
  30.6415056  99.1555779  39.2529266  30.5991235  99.3816625  38.3237798
  31.5577755  98.9219153  39.4015067  34.0880690  89.6239846  46.1509895
  34.4430077  89.8511319  47.0104361  34.7352821  89.9558223  45.5287150
  39.8178427  92.7458282  36.8559224  39.6796325  92.9359878  35.9280413
  39.4614645  93.5077665  37.3127275  27.9820553  86.7316377  42.9356236
  28.6219932  86.5905136  42.2379199  27.1498083  86.4450891  42.5594838
  39.8447806  94.8134809  41.8670495  40.2784313  94.7210098  42.7153549
  40.5579387  94.7892310  41.2290511  28.7580857  96.0318808  39.0491228
  29.5521455  95.5369128  38.8473803  28.0472549  95.5036671  38.6858934
  33.5775701  98.4136903  43.4003596  33.6312723  98.9827840  44.1681312
  32.7090483  98.5838788  43.0357633  25.0663620  90.1761889  35.1250981
  24.1361208  90.1146345  35.3420943  25.1621092  89.6537842  34.3287622
  24.9849169  86.7016702  37.7129223  25.2455987  87.6162036  37.6038383
  25.8066342  86.2341145  37.8625835  26.4574095  88.1154459  44.8828047
  27.1297148  87.9071822  44.2340696  25.6303881  87.9176545  44.4433279
  40.7063356  94.8558510  44.4003381  40.8999246  95.7604320  44.6462656
  40.6063974  94.3965929  45.2341966  32.3599667  84.7416400  46.8993708
  31.7127582  85.4406350  46.8058184  33.1300682  85.1752544  47.2669956
  35.7678464  95.0065253  49.9744261  35.6163971  94.7775804  49.0574345
  35.7583144  95.9635854  49.9875606  32.5363801  92.5797165  44.9590528
  33.4655861  92.7308325  44.7859495  32.1154831  92.6681186  44.1039174
  31.3352133  96.6047830  42.7289065  31.1963218  96.2366614  43.6015003
  30.5466729  97.1195469  42.5573023  32.8857348  95.9829432  40.1177903
  32.5507180  95.9430202  41.0135553  32.3861294  95.3174148  39.6448313
  26.8601592  91.3897062  45.6430484  26.7221390  90.6577301  46.2442023
  27.7706515  91.3005963  45.3614672  35.8216539  93.3285467  30.3914963
  35.2045710  92.6032295  30.2948015  35.3533028  94.0894827  30.0482037
  29.4883892  91.1017022  45.1314164  30.1983511  90.4610214  45.0900782
  29.4453201  91.3529917  46.0540345  37.4770671  98.0384375  48.0520743
  37.4183217  97.3543595  47.3851326  37.8790190  98.7803365  47.6001369
  28.2012826  88.0882240  46.9509803  27.6650183  87.6372978  47.6031400
  27.6129535  88.2228148  46.2080268  27.6115085  87.5470891  29.5136267
  26.7344552  87.4259692  29.1498514  28.0872838  86.7556969  29.2615156
  37.4788078  96.0023959  46.2834723  36.5914857  95.6649881  46.4061122
  38.0486629  95.2706990  46.5203488  19.1317226  92.3348051  39.6077774
  19.8188265  92.0209781  39.0198790  18.9765354  93.2389415  39.3345026
  23.9351948  87.2238247  44.0362798  23.8510136  86.6163917  43.3013208
  23.1134654  87.7147266  44.0372294  31.0089232 100.6625411  43.2495966
  30.9359403 101.4680383  43.7615271  30.5666625 100.8617377  42.4243987
  30.7979011  99.8997181  36.7598788  30.0146533 100.4418862  36.8537012
  31.4971757 100.4171161  37.1593029  34.1075662  85.7091811  39.4032993
  34.6044361  84.9561773  39.0834063  33.3362643  85.7456128  38.8376202
  41.9605419  91.4132176  41.0451284  41.9495295  92.2956892  40.6745218
  41.0922798  91.0603727  40.8505822  33.4687915 100.5612245  45.4054125
  34.1815888 101.1959710  45.3330026  32.9777944 100.6576111  44.5894127
  35.1905442  94.4663498  36.9771416  34.2561721  94.5864961  36.8076121
  35.3682111  93.5635965  36.7131426  30.6910630  87.8509194  39.1304678
  30.3208418  87.2980234  39.8185583  31.1869723  87.2467327  38.5779678
  38.5777994  90.3080817  37.5121451  39.0438446  91.1408809  37.4381753
  39.0285494  89.8425799  38.2166709  28.5199829  98.3106689  46.2259696
  29.2209288  98.9443172  46.3789090  28.0494944  98.6521420  45.4655335
  36.6454225  96.6524639  34.5107603  36.9214069  96.5381233  35.4201477
  35.7758723  96.2542124  34.4719776  36.5494656  82.6761404  41.5512352
  35.6357736  82.9065631  41.7194559  36.9787758  82.7599848  42.4026384
  36.3201115  90.8651296  44.0512246  35.6672565  91.1127204  43.3964699
  36.6981495  90.0515435  43.7174723  33.2808289 100.9010990  38.1540416
  33.4630683 100.0832645  38.6168169  34.1041275 101.1178682  37.7165306
  33.6150454  99.8279175  35.4155465  34.1438221  99.3171629  34.8025627
  33.8778674  99.5121705  36.2800998  32.3688688  91.6071107  50.5378283
  31.6929325  91.5065237  51.2080658  33.1916322  91.4510321  51.0014280
  24.1167547  97.8443044  43.1590798  24.7020984  97.0986732  43.2918702
  23.9192385  98.1547001  44.0427462  18.7085202  90.4148644  41.8795241
  18.7469301  89.8812235  42.6732359  18.2025494  89.8883850  41.2606219
  26.0875964  85.2613185  45.3757784  26.1517290  86.1228016  44.9635181
  26.0243084  84.6487186  44.6430142  25.5628236  87.3336317  49.0230818
  26.1900275  86.9513395  49.6368342  24.7056155  87.1150519  49.3886510
  35.9622345  97.7399292  50.6284553  36.5062249  98.3529251  50.1339508
  35.3809190  98.2978871  51.1451566  22.3393779  89.1412746  34.9549173
  22.6347220  88.2323425  34.9016226  21.4381815  89.1200486  34.6330175
  34.2479858 100.8620010  41.7599581  34.1230997 100.0609750  41.2510527
  34.9058949 101.3566204  41.2713551  25.8688026  87.2168743  40.9376721
  25.1474612  87.8304711  40.7984195  26.6581282  87.7526508  40.8593367
  36.3114766  98.6629030  43.3879131  35.3645102  98.5434382  43.3157458
  36.6597539  97.7751528  43.4705393  28.6714340  84.5523169  47.2117373
  29.1948742  84.7985466  47.9743682  28.4526673  85.3843204  46.7920510
  24.0681621  86.8226844  35.0788498  23.7394327  85.9424223  34.8963604
  24.4220992  86.7674513  35.9664887  33.3161200  98.4581747  39.5883483
  33.1686162  97.5298454  39.7691053  34.1414693  98.4801837  39.1040559
  27.1823444  87.1099814  35.4463976  27.5219516  87.6385735  34.7242584
  27.6295564  87.4480220  36.2222542  36.9195322  99.2810305  40.6748356
  37.8441869  99.0753167  40.5372807  36.7510625  99.0326707  41.5837698
  29.8766885  85.4936864  44.8967044  29.5363705  84.6944678  45.2987724
  29.1705891  85.7938575  44.3243877  30.5283357  82.5786177  43.3494367
  31.3509426  82.1046655  43.2273257  30.7721420  83.3576661  43.8493053
  29.1691591  85.6074435  33.6457268  29.8899954  85.9855688  33.1420985
  28.5456895  86.3263312  33.7492246  33.3122714  86.3119584  34.5815601
  33.5286328  87.1944222  34.2804429  32.8316781  85.9205798  33.8521243
  28.0521935  89.2705298  41.1586345  27.9066516  89.5845601  42.0510627
  27.5747139  89.8890198  40.6057244  29.9118318  86.2607846  41.2067235
  29.8979887  85.3648939  40.8699533  30.6290746  86.2678509  41.8405521
  31.7644449  86.6945186  43.2520362  31.5062227  87.6162256  43.2504693
  31.2329489  86.2975620  43.9420826  36.7090638  99.7995973  36.0310448
  36.8827515  99.2342395  35.2784300  37.2019529 100.5996868  35.8489938
  22.5267598  91.8110642  44.0974006  21.9821066  92.5870450  44.2294281
  23.4046947  92.1581446  43.9393128  29.3155214  85.1422226  36.4754805
  29.4371125  84.2138872  36.6745692  29.0257257  85.1560912  35.5633120
  32.1846405  82.8277136  39.6121525  32.2068101  82.8916469  38.6573504
  32.6014464  81.9881645  39.8062031  42.5630029  92.5632396  37.6500747
  43.0061175  91.8139721  37.2519871  41.6856539  92.5542532  37.2674479
  37.6965810  99.1162737  33.1307346  38.3916715  99.7369430  33.3494661
  38.0388960  98.2658088  33.4059724  23.3133619  90.9380538  46.9904163
  22.5715355  91.0863174  47.5768794  22.9926364  91.1988804  46.1270913
  39.5957233  96.5662443  34.6594677  40.1208557  96.9049716  33.9343997
  39.5079586  95.6309458  34.4757811  31.2577282 100.4796516  46.7884553
  31.5664408 100.2345663  47.6607253  32.0552764 100.6843155  46.3003424
  23.7590233  98.8245967  39.0214558  24.5848253  98.5249739  38.6413201
  23.4084285  98.0553589  39.4704347  28.7271766  98.1772435  41.0912232
  28.1051776  97.5143140  40.7914459  29.3976633  98.2033567  40.4085879
  21.9598838  96.7432293  39.9803492  21.1230746  96.3154468  39.7987493
  21.9322484  96.9364737  40.9174283  28.7996294  86.6554223  50.6844738
  28.8484449  87.5316346  50.3022507  29.3418808  86.1131616  50.1116381
  39.2851139  97.1995346  49.9645875  38.4946683  97.1819485  49.4250374
  39.0484494  97.7383640  50.7194911  39.4049014  94.0487813  47.2778603
  39.4547019  93.8837820  48.2194126  39.2962938  93.1815072  46.8876484
  28.2885273  96.7276359  34.5670692  28.4373394  97.4111823  33.9137365
  29.0951717  96.7081449  35.0820148  36.6952777  90.0318741  48.5937910
  37.5962640  89.8925206  48.3021908  36.7700751  90.1973196  49.5336087
  31.0295582  87.4085596  47.4391096  30.1598892  87.7019162  47.1673685
  31.2655063  87.9926041  48.1598360  40.9067211  96.4684754  47.5220625
  40.6152020  96.8314735  48.3584086  40.2939343  95.7551763  47.3433957
  42.1062894  94.0337634  40.0423195  42.9409785  94.4727438  40.2060755
  42.2422022  93.5576287  39.2231441  39.1554400  91.5917369  45.9900683
  39.6308521  91.7845015  45.1819534  38.2319965  91.6476555  45.7444066
  26.0437906  92.7541536  35.5731761  25.7983948  91.8503866  35.7711971
  26.2133821  92.7558687  34.6311239  33.7334616  83.6265213  44.9556517
  34.2516560  84.3626239  44.6303005  33.3789749  83.9329206  45.7903276
  25.3133554  88.4869894  33.0717922  24.6202799  88.5614249  32.4157958
  25.0685306  87.7230237  33.5939439  33.9847210  80.0465495  40.4757413
  34.2648964  79.3788684  41.1017840  34.7697817  80.2394591  39.9632077
  31.7880679  99.2224489  32.0382440  31.2154646  99.8414676  31.5852911
  32.3613472  99.7723851  32.5722361  37.8556069  88.4683129  44.2228988
  38.8073491  88.5681227  44.2441212  37.6859519  87.6761398  44.7327073
  35.8770448  85.5538712  44.4088389  35.2820380  85.8343725  43.7134878
  35.5920145  86.0432613  45.1805130  35.0077938  99.5061639  33.1691022
  35.9408612  99.4407201  33.3723897  34.9201151 100.3417906  32.7105554
  37.6365955  98.8227509  30.1294969  37.5579587  98.4887373  31.0230727
  38.4575622  99.3149277  30.1286442  40.3344146  91.6889249  43.3371288
  40.3020466  90.7505249  43.5230972  40.9444770  91.7673285  42.6037113
  32.1727477  90.5585302  29.3798492  33.1186582  90.4291510  29.4486910
  31.7941722  89.8199964  29.8567920  40.4838635  88.4800292  43.3829571
  39.9677683  87.6958749  43.1959500  41.3678583  88.1519009  43.5476091
  38.1449362  82.2241308  39.3425384  37.9474183  81.9156396  40.2268716
  38.7549067  82.9502947  39.4723314  46.1520696  92.7505256  42.4777325
  46.8824085  92.4890544  43.0385028  45.5427642  92.0133978  42.5179393
  44.2335993  90.8913118  43.0751776  43.5069157  90.7569083  42.4668268
  43.8183280  91.1989947  43.8808494  32.0566170  94.6103048  50.8399149
  32.9769179  94.7881647  51.0339196  32.0215753  93.6659093  50.6878848
  30.3570394  88.4835278  29.3153377  29.4501850  88.1868391  29.3916091
  30.6346375  88.1865096  28.4487663  21.2748335  89.8041641  39.7652424
  20.9551119  88.9506950  39.4726798  20.7281763  90.0190220  40.5210391
  25.0528242  92.5204082  43.4821930  25.2714252  93.4521190  43.5009964
  25.4654016  92.1612057  44.2676734  31.9732460  83.0272168  35.4697619
  31.1633188  82.6819253  35.8452865  32.6616877  82.7179712  36.0585230
  33.9023008  82.1050215  37.0921915  34.4554047  82.5245668  37.7511938
  34.1393095  81.1785963  37.1344871  29.9256108  88.0937288  52.8724679
  29.8252834  89.0431645  52.8036770  29.7077650  87.7655527  52.0000749
  29.1269179  85.3422213  29.4565356  29.9888343  85.6677112  29.7161174
  29.3119523  84.5553709  28.9438422  21.1436595  93.4244553  41.7345545
  20.4500066  93.0098506  41.2215500  21.8909586  93.4665089  41.1378964
  37.2801815  84.2150740  36.6000579  36.7000484  84.8735544  36.2178632
  37.0137748  83.3928084  36.1887997  35.7305382  83.6155797  38.8021900
  36.2305160  83.7272332  37.9936219  36.3740990  83.3116850  39.4422708
  29.7887378  91.5234427  51.6889741  29.3054459  92.3234787  51.8953630
  29.8748317  91.5342372  50.7357185  23.0573337  93.3562807  39.6111560
  23.0344025  93.4550494  38.6593443  23.3673974  94.2027958  39.9328726
  25.7160715  95.4138962  43.7258175  26.6703969  95.3822904  43.6588106
  25.5173239  94.9529586  44.5408400  26.3060097  93.9840078  46.2928972
  27.1252986  94.4784157  46.3163809  26.5796905  93.0672046  46.2646540
  36.0626693  86.3750830  35.6556928  35.1752548  86.6600481  35.4377122
  36.4780683  86.2144594  34.8084205  39.4141230  86.3997351  39.3711267
  40.1901620  86.8893804  39.6435884  38.6889364  86.8255405  39.8283136
  41.8513788  87.1124970  40.4285208  42.4458279  86.8720706  39.7178516
  41.9240372  86.3932101  41.0558744  35.2069907  96.1395505  29.7504948
  35.9105757  96.3445507  30.3662603  34.4832556  96.7072267  30.0154031
  36.0367717  91.8905366  35.8707218  35.9802919  92.3473918  35.0314850
  36.5896060  91.1296051  35.6930061  39.8472523  87.6795098  36.6957337
  39.5909457  87.2791734  37.5265545  39.2225391  88.3938892  36.5707477
  44.1584861  90.4191171  39.2028629  43.5984419  90.4884361  39.9760191
  43.5528364  90.2432156  38.4828125  37.1156604  96.5778034  31.8003408
  37.9502208  96.1459232  31.6180883  36.9540947  96.4060048  32.7280302
  36.7702497  93.0810147  33.1659747  36.7151300  92.9154419  32.2248191
  36.1448552  93.7886180  33.3221937  21.5595011  88.3178212  46.9921169
  22.2053875  87.8077166  47.4808394  21.3512163  89.0546893  47.5664594
  34.0848404  95.3859059  52.4913310  34.9539563  95.5599711  52.1299945
  33.6055155  96.2053476  52.3689039  30.0798622  82.5818256  32.7445065
  30.0677292  83.5260096  32.9013336  30.9722044  82.3988402  32.4504527
  30.0088186 101.2587147  40.8312822  29.0583817 101.2589008  40.7177194
  30.3120672 100.5119881  40.3148857  33.8950741  79.1761033  36.9991002
  33.1283137  78.6219520  37.1447685  34.3061446  79.2482902  37.8605154
  25.8992502  85.4645829  51.0896183  26.7623964  85.1082634  51.2999508
  25.3257913  85.1259724  51.7771588  45.2982148 104.8199139  38.9711793
  46.0845237 104.4018562  38.6202210  45.5620852 105.7245231  39.1393441
  50.6990575 104.7574372  39.8744771  51.4315747 104.1873589  40.1082601
  49.9429931 104.3695973  40.3151277  48.2215995  98.4695946  44.3339380
  47.8899320  99.3391357  44.1100595  47.6261609  98.1532230  45.0133410
  41.9572182 102.2091513  32.0669462  42.1246584 103.0771750  32.4339933
  41.7669351 102.3718795  31.1430751  48.1144659 103.1891032  41.4132730
  47.2061536 103.1206441  41.1191491  48.0632254 103.6662977  42.2414555
  41.9361403 104.6649171  33.0516129  41.8161028 105.1106222  33.8901609
  41.2413991 105.0134489  32.4929667  42.1885524 104.6080678  49.3567627
  41.4118859 105.1674598  49.3470492  42.8276088 105.0937461  49.8782497
  49.9806305 101.3907471  43.1910604  49.3380685 101.6840004  42.5450398
  49.4761234 101.2760391  43.9963800  47.6346469 105.1370644  33.8796463
  48.5464325 105.3698031  33.7044160  47.1256116 105.7207688  33.3171541
  42.2718306 104.4967879  44.8891312  43.1179502 104.9207292  45.0325961
  42.2116944 103.8401503  45.5829876  45.4217752 102.1572247  46.5472486
  45.1778684 102.9114308  46.0106762  45.6977682 102.5357595  47.3819733
  44.9782444 101.3128680  42.1286324  44.1166923 101.6109934  42.4203061
  45.0044878 101.5299079  41.1967356  56.5808036 107.9221563  39.7457080
  55.8271744 107.3528961  39.5901085  56.7155577 107.8884228  40.6927715
  38.4574003  98.8726545  52.0826155  38.0640949  98.3192744  52.7573799
  39.2740144  99.1837124  52.4732673  41.3741964 100.2884425  49.6746412
  42.1151678 100.8891578  49.5950874  41.6059887  99.5462062  49.1164454
  45.3199127  96.3165527  43.9510693  44.9763397  97.2067169  43.8749804
  45.6878090  96.1267185  43.0880278  42.8696521 101.1523839  37.5168367
  42.0138117 100.7630690  37.3374005  43.2823473 101.2315800  36.6568152
  44.3995668  98.6870183  41.9159926  43.8960463  98.6500318  41.1027732
  44.6926274  99.5962925  41.9756583  40.6438553  98.7708912  40.9226108
  41.5091550  98.5751721  40.5631998  40.7116062  98.5419264  41.8495465
  45.0735713 104.1801231  34.2842910  44.7685849 104.4947380  35.1353053
  46.0266155 104.2582651  34.3270243  38.2500873 101.0011120  38.2942475
  38.8244624 100.7786302  37.5615668  38.8371855 101.0699815  39.0471076
  47.3080450 106.8884847  39.1006852  47.8212332 107.5214839  39.6028561
  47.9581674 106.2886043  38.7350212  38.5770460 103.0315581  32.3138360
  37.7407772 103.3690268  32.6347635  38.4375229 102.8964561  31.3765497
  40.5523540  97.8752369  37.0217544  39.8987953  97.5601386  36.3974159
  40.5104014  97.2528110  37.7477367  43.7861281 104.3634303  41.3465192
  42.8683842 104.5849250  41.1886880  44.2021424 104.4380613  40.4876899
  44.5696328 105.7625718  36.4767872  45.3168147 106.2747116  36.1674994
  44.8387918 105.4409771  37.3372266  47.0175166 102.7982835  38.4586662
  46.2797922 102.2860221  38.7896904  47.2701939 102.3583216  37.6469939
  47.1186793  95.5759087  39.0528431  47.4245670  94.7156450  38.7654346
  47.8439398  96.1676707  38.8527425  44.9274444 104.9531764  46.1509895
  45.2823832 105.1803237  47.0104361  45.5746575 105.2850141  45.5287150
  38.8214307 102.0608295  42.9356236  39.4613687 101.9197054  42.2379199
  37.9891838 101.7742808  42.5594838  35.8242924 102.0308620  37.7129223
  36.0849741 102.9453953  37.6038383  36.6460096 101.5633063  37.8625835
  37.2967849 103.4446377  44.8828047  37.9690902 103.2363739  44.2340696
  36.4697636 103.2468463  44.4433279  43.1993421 100.0708318  46.8993708
  42.5521336 100.7698268  46.8058184  43.9694436 100.5044462  47.2669956
  39.0406581 103.4174157  46.9509803  38.5043938 102.9664896  47.6031400
  38.4523289 103.5520066  46.2080268  38.4508840 102.8762809  29.5136267
  37.5738306 102.7551610  29.1498514  38.9266593 102.0848887  29.2615156
  44.9469416 101.0383729  39.4032993  45.4438116 100.2853691  39.0834063
  44.1756398 101.0748045  38.8376202  52.7999173 106.7424094  41.0451284
  52.7889050 107.6248810  40.6745218  51.9316553 106.3895645  40.8505822
  41.5304385 103.1801112  39.1304678  41.1602172 102.6272152  39.8185583
  42.0263477 102.5759245  38.5779678  49.4171748 105.6372735  37.5121451
  49.8832200 106.4700727  37.4381753  49.8679249 105.1717717  38.2166709
  47.3888411  98.0053322  41.5512352  46.4751491  98.2357549  41.7194559
  47.8181512  98.0891766  42.4026384  47.1594869 106.1943214  44.0512246
  46.5066320 106.4419121  43.3964699  47.5375249 105.3807352  43.7174723
  36.9269718 100.5905102  45.3757784  36.9911045 101.4519933  44.9635181
  36.8636839  99.9779104  44.6430142  36.4021991 102.6628235  49.0230818
  37.0294030 102.2805312  49.6368342  35.5449910 102.4442437  49.3886510
  36.7081781 102.5460661  40.9376721  35.9868366 103.1596628  40.7984195
  37.4975036 103.0818425  40.8593367  39.5108094  99.8815087  47.2117373
  40.0342496 100.1277384  47.9743682  39.2920428 100.7135122  46.7920510
  34.9075375 102.1518762  35.0788498  34.5788081 101.2716141  34.8963604
  35.2614746 102.0966430  35.9664887  38.0217198 102.4391731  35.4463976
  38.3613271 102.9677653  34.7242584  38.4689319 102.7772138  36.2222542
  40.7160639 100.8228782  44.8967044  40.3757460 100.0236595  45.2987724
  40.0099646 101.1230493  44.3243877  41.3677111  97.9078095  43.3494367
  42.1903180  97.4338573  43.2273257  41.6115175  98.6868578  43.8493053
  40.0085346 100.9366353  33.6457268  40.7293708 101.3147606  33.1420985
  39.3850650 101.6555230  33.7492246  44.1516468 101.6411502  34.5815601
  44.3680083 102.5236140  34.2804429  43.6710536 101.2497715  33.8521243
  40.7512073 101.5899763  41.2067235  40.7373642 100.6940857  40.8699533
  41.4684501 101.5970427  41.8405521  42.6038203 102.0237103  43.2520362
  42.3455981 102.9454174  43.2504693  42.0723244 101.6267538  43.9420826
  40.1548969 100.4714143  36.4754805  40.2764880  99.5430790  36.6745692
  39.8651011 100.4852829  35.5633120  43.0240159  98.1569054  39.6121525
  43.0461856  98.2208387  38.6573504  43.4408218  97.3173563  39.8062031
  53.4023783 107.8924313  37.6500747  53.8454929 107.1431639  37.2519871
  52.5250294 107.8834450  37.2674479  39.6390048 101.9846141  50.6844738
  39.6878204 102.8608264  50.3022507  40.1812562 101.4423534  50.1116381
  47.5346531 105.3610659  48.5937910  48.4356394 105.2217123  48.3021908
  47.6094506 105.5265113  49.5336087  41.8689337 102.7377513  47.4391096
  40.9992646 103.0311079  47.1673685  42.1048817 103.3217958  48.1598360
  52.9456648 109.3629552  40.0423195  53.7803539 109.8019356  40.2060755
  53.0815777 108.8868205  39.2231441  49.9948154 106.9209287  45.9900683
  50.4702276 107.1136933  45.1819534  49.0713719 106.9768472  45.7444066
  44.5728371  98.9557130  44.9556517  45.0910314  99.6918157  44.6303005
  44.2183503  99.2621123  45.7903276  44.8240965  95.3757413  40.4757413
  45.1042718  94.7080602  41.1017840  45.6091572  95.5686508  39.9632077
  48.6949823 103.7975047  44.2228988  49.6467246 103.8973144  44.2441212
  48.5253273 103.0053315  44.7327073  46.7164202 100.8830630  44.4088389
  46.1214135 101.1635643  43.7134878  46.4313899 101.3724531  45.1805130
  51.1737901 107.0181166  43.3371288  51.1414221 106.0797167  43.5230972
  51.7838524 107.0965203  42.6037113  43.0121232 105.8877219  29.3798492
  43.9580336 105.7583427  29.4486910  42.6335477 105.1491881  29.8567920
  51.3232389 103.8092210  43.3829571  50.8071438 103.0250666  43.1959500
  52.2072338 103.4810926  43.5476091  48.9843116  97.5533225  39.3425384
  48.7867937  97.2448314  40.2268716  49.5942822  98.2794864  39.4723314
  56.9914451 108.0797173  42.4777325  57.7217839 107.8182461  43.0385028
  56.3821396 107.3425895  42.5179393  55.0729748 106.2205036  43.0751776
  54.3462911 106.0861001  42.4668268  54.6577035 106.5281864  43.8808494
  41.1964149 103.8127196  29.3153377  40.2895604 103.5160308  29.3916091
  41.4740130 103.5157014  28.4487663  42.8126215  98.3564085  35.4697619
  42.0026943  98.0111170  35.8452865  43.5010631  98.0471629  36.0585230
  44.7416763  97.4342132  37.0921915  45.2947801  97.8537586  37.7511938
  44.9786849  96.5077880  37.1344871  40.7649862 103.4229206  52.8724679
  40.6646589 104.3723563  52.8036770  40.5471404 103.0947445  52.0000749
  39.9662933 100.6714131  29.4565356  40.8282097 100.9969029  29.7161174
  40.1513278  99.8845627  28.9438422  48.1195570  99.5442657  36.6000579
  47.5394239 100.2027461  36.2178632  47.8531503  98.7220002  36.1887997
  46.5699136  98.9447715  38.8021900  47.0698915  99.0564250  37.9936219
  47.2134744  98.6408768  39.4422708  46.9020448 101.7042748  35.6556928
  46.0146303 101.9892398  35.4377122  47.3174437 101.5436511  34.8084205
  50.2534984 101.7289269  39.3711267  51.0295374 102.2185721  39.6435884
  49.5283118 102.1547323  39.8283136  52.6907543 102.4416888  40.4285208
  53.2852034 102.2012624  39.7178516  52.7634126 101.7224019  41.0558744
  50.6866278 103.0087016  36.6957337  50.4303212 102.6083651  37.5265545
  50.0619146 103.7230810  36.5707477  54.9978615 105.7483089  39.2028629
  54.4378173 105.8176278  39.9760191  54.3922119 105.5724073  38.4828125
  40.9192376  97.9110174  32.7445065  40.9071046  98.8552014  32.9013336
  41.8115798  97.7280319  32.4504527  44.7344496  94.5052951  36.9991002
  43.9676892  93.9511437  37.1447685  45.1455201  94.5774819  37.8605154
  36.7386257 100.7937746  51.0896183  37.6017719 100.4374551  51.2999508
  36.1651668 100.4551641  51.7771588  57.9580547 110.9051004  39.0528431
  58.2639424 110.0448368  38.7654346  58.6833152 111.4968625  38.8527425
  55.6634719 110.7049330  40.4757413  55.9436473 110.0372519  41.1017840
  56.4485326 110.8978426  39.9632077  55.5738250 109.8344868  36.9991002
  54.8070646 109.2803355  37.1447685  55.9848955 109.9066737  37.8605154
   2.3865863  22.7842137  28.6203891   3.0244273  22.6648884  27.9167231
   2.2686706  23.7322981  28.6791843   1.3572498  26.3602944  30.4580599
   1.0573221  27.2627983  30.3496406   1.0123558  26.0935127  31.3101752
   6.6231288  17.0801923  29.9155910   5.9805669  17.3734456  29.2695705
   6.1186217  16.9654843  30.7209107   2.5612220  25.2489724  34.2403062
   2.9695576  24.8072134  33.4957694   1.8389481  24.6742351  34.4937255
   2.8841034  25.8090914  27.9955351   2.2549897  25.9736629  27.2931419
   2.4966696  26.2232524  28.7666315   6.7630266  26.7445352  25.3499715
   6.0781304  27.1244254  24.7996748   6.8474116  27.3540679  26.0831662
   2.0642735  17.8466699  33.2717793   1.8203667  18.6008759  32.7352068
   2.3402666  18.2252047  34.1065040   4.0181198  24.3905311  31.9495058
   4.2298093  25.0337071  31.2729439   3.9710946  23.5567628  31.4816988
   5.1327026  27.2677267  30.1217416   5.9544470  26.8657454  29.8400097
   5.1289429  27.1645501  31.0733531  13.2233019  23.6116015  26.4702387
  12.4696727  23.0423413  26.3146391  13.3580560  23.5778680  27.4173022
   2.3381361  29.3855784  34.3038850   2.3199837  30.2064665  33.8119119
   3.2601281  29.2609859  34.5288991   5.1399974  24.2234926  27.7748216
   4.4823649  24.9134188  27.8628345   5.9440373  24.6131358  28.1182203
   3.1600169  29.3961797  24.8881119   3.4523143  29.9566854  24.1693485
   3.6698789  29.6890358  25.6434278   1.5699427  20.6426216  32.8755201
   1.9248815  20.8697689  33.7349667   2.2171559  20.9744593  32.2532457
   7.3266544  25.8321179  28.5915802   7.7603051  25.7396468  29.4398856
   8.0398125  25.8078679  27.9535818   8.1882094  25.8744879  31.1248687
   8.3817984  26.7790690  31.3707962   8.0882712  25.4152298  31.9587272
   3.2497202  26.0251622  36.6989568   3.0982709  25.7962174  35.7819652
   3.2401882  26.9822224  36.7120913   4.9589409  29.0570745  34.7766050
   4.9001955  28.3729965  34.1096633   5.3608927  29.7989735  34.3246676
   4.9606816  27.0210329  33.0080029   4.0733595  26.6836250  33.1306428
   5.5305367  26.2893360  33.2448795   9.4424157  22.4318546  27.7696591
   9.4314033  23.3143261  27.3990524   8.5741536  22.0790097  27.5751128
   0.9506653  31.5798615  32.1299431   1.6634625  32.2146080  32.0575333
   0.4596682  31.6762481  31.3139433   3.8019853  21.8837666  30.7757553
   3.1491303  22.1313573  30.1210005   4.1800233  21.0701804  30.4420030
   0.7627026  31.9197359  24.8785723   0.9449421  31.1019015  25.3413475
   1.5860013  32.1365051  24.4410613   3.4441083  28.7585662  37.3529860
   3.9880987  29.3715620  36.8584815   2.8627928  29.3165240  37.8696873
   1.7298596  31.8806380  28.4844888   1.6049735  31.0796120  27.9755833
   2.3877687  32.3752573  27.9958858   3.7933504  29.6815400  30.1124438
   2.8463840  29.5620751  30.0402765   4.1416277  28.7937898  30.1950699
   0.7979937  29.4768116  26.3128790   0.6504900  28.5484824  26.4936360
   1.6233431  29.4988207  25.8285865   4.4014059  30.2996675  27.3993663
   5.3260607  30.0939536  27.2618114   4.2329363  30.0513076  28.3083004
   6.7669877  28.2181716  36.6891181   5.9765421  28.2005855  36.1495681
   6.5303232  28.7570010  37.4440218   6.8867752  25.0674182  34.0023910
   6.9365757  24.9024190  34.9439433   6.7781676  24.2001441  33.6121791
   4.1771515  21.0505110  35.3183217   5.0781377  20.9111575  35.0267214
   4.2519489  21.2159565  36.2581394   8.3885949  27.4871124  34.2465931
   8.0970757  27.8501104  35.0829392   7.7758080  26.7738132  34.0679263
   9.5881631  25.0524004  26.7668502  10.4228523  25.4913808  26.9306062
   9.7240760  24.5762657  25.9476747   6.6373137  22.6103739  32.7145989
   7.1127259  22.8031385  31.9064841   5.7138703  22.6662924  32.4689373
   5.3374806  19.4869499  30.9474295   6.2892229  19.5867596  30.9686519
   5.1678257  18.6947767  31.4572379   7.8162884  22.7075618  30.0616595
   7.7839204  21.7691619  30.2476278   8.4263508  22.7859655  29.3282419
   7.9657373  19.4986662  30.1074878   7.4496421  18.7145118  29.9204807
   8.8497321  19.1705378  30.2721397  13.6339434  23.7691625  29.2022631
  14.3642822  23.5076913  29.7630335  13.0246379  23.0320347  29.2424699
  11.7154731  21.9099488  29.7997083  10.9887895  21.7755453  29.1913574
  11.3002018  22.2176316  30.6053801  11.6403599  21.4377541  25.9273935
  11.0803157  21.5070730  26.7005497  11.0347102  21.2618525  25.2073432
   1.5667141  26.4045429  39.2158616   2.4358301  26.5786081  38.8545251
   1.0873893  27.2239846  39.0934346  13.2259617  38.1134055  28.6203891
  13.8638027  37.9940802  27.9167231  13.1080460  39.0614899  28.6791843
  10.0349323  38.0661483  28.5565416   9.6967835  37.9502547  27.6685951
  10.9039092  37.6652648  28.5366422   5.8936139  39.9196959  24.5462307
   5.3301004  39.8286896  23.7778595   5.7788534  39.0996864  25.0264799
  10.5169106  39.2196335  34.5151621  10.5057747  38.8249133  33.6432125
  10.6789746  38.4862407  35.1085393   3.4400571  41.4148151  27.3846527
   4.2321863  41.0738975  26.9692827   3.6797221  41.5243126  28.3048681
  11.4735698  43.5867927  19.8576772  10.8223678  44.1722007  19.4710785
  12.2680061  44.1174122  19.9171809   5.3991325  40.6757064  20.2563906
   6.1722201  40.1286051  20.1176782   5.7516724  41.5401313  20.4678367
   7.2376368  42.0033446  33.4630805   6.9466234  42.9079077  33.3477472
   7.8733352  42.0449974  34.1774875   8.1632574  39.3810295  30.0532165
   8.7596147  39.1566317  29.3389128   8.2207546  38.6395040  30.6557613
  12.7800886  35.8385509  25.6957099  13.5663975  35.4204932  25.3447516
  13.0439590  36.7431601  25.8638748  12.9510963  41.2758359  20.3945756
  12.3156796  41.3492985  21.1066661  12.6208369  41.8651958  19.7164835
  18.1809313  35.7760742  26.5990078  18.9134485  35.2059959  26.8327907
  17.4248669  35.3882342  27.0396583   7.4553892  38.7377836  20.0906731
   7.3390150  38.0622740  20.7587815   7.5656152  38.2510210  19.2738884
   9.7985433  38.1987983  23.7953420   9.4343640  37.6718604  24.5066342
  10.6552548  37.8086452  23.6219906  15.7034733  29.4882316  31.0584686
  15.3718058  30.3577727  30.8345901  15.1080347  29.1718600  31.7378717
  12.1966253  41.6894862  30.4580599  11.8966976  42.5919901  30.3496406
  11.8517312  41.4227045  31.3101752   5.6478734  38.1408659  26.4917303
   4.7229231  38.0084873  26.6994995   5.8963147  38.9202878  26.9887246
  15.5963396  34.2077402  28.1378036  14.6880274  34.1392810  27.8436797
  15.5450992  34.6849347  28.9659862   9.4180140  35.6835540  19.7761435
   9.2979766  36.1292591  20.6146916   8.7232729  36.0320858  19.2174974
   3.0087545  37.7841932  27.3261092   3.1379926  38.0376411  28.2400504
   2.3284997  38.3769640  27.0065748   7.1787033  48.4539182  23.4251567
   7.1011062  49.4047007  23.5040047   6.5748676  48.1085055  24.0826493
   9.6704262  35.6267048  36.0812934   8.8937596  36.1860968  36.0715798
  10.3094825  36.1123831  36.6027804  17.4625043  32.4093840  29.9155910
  16.8199423  32.7026374  29.2695705  16.9579971  32.2946761  30.7209107
  15.1165207  36.1557014  20.6041770  16.0283063  36.3884400  20.4289467
  14.6074854  36.7394058  20.0416848   7.9250635  38.4352501  35.6430901
   8.6665319  38.9737545  35.3665724   7.2187620  39.0618790  35.8002452
  13.4005974  40.5781641  34.2403062  13.8089330  40.1364052  33.4957694
  12.6783236  40.0034269  34.4937255   9.7537044  35.5154248  31.6136619
  10.5998239  35.9393662  31.7571268   9.6935682  34.8587873  32.3075182
  13.7234789  41.1382832  27.9955351  13.0943651  41.3028546  27.2931419
  13.3360451  41.5524442  28.7666315  17.6024021  42.0737270  25.3499715
  16.9175059  42.4536171  24.7996748  17.6867870  42.6832597  26.0831662
  12.9036490  33.1758617  33.2717793  12.6597421  33.9300677  32.7352068
  13.1796420  33.5543964  34.1065040  14.8574952  39.7197229  31.9495058
  15.0691848  40.3628989  31.2729439  14.8104701  38.8859545  31.4816988
  12.4601181  32.3315050  28.8531630  11.5985660  32.6296303  29.1448368
  12.4863616  32.5485448  27.9212663   9.2762751  40.8757240  25.2605436
   9.7401096  41.1544943  24.4710059   9.0119549  39.9740685  25.0778527
   6.1686832  40.4228722  28.1985199   6.7388189  40.8515990  27.5602684
   6.7594944  40.1411306  28.8969385   8.2131637  36.9980393  22.0695001
   8.9155680  37.4501436  22.5368928   7.8812265  36.3564211  22.6974894
   6.6611998  35.5892149  36.4446211   6.0310659  36.2708430  36.6781607
   6.5548086  35.4775231  35.4999349   1.9556971  35.2563945  27.3712135
   1.1656025  35.5121474  26.8952245   2.4468218  36.0712283  27.4764175
  15.9720780  42.5969184  30.1217416  16.7938224  42.1949372  29.8400097
  15.9683183  42.4937419  31.0733531   3.9071716  35.6208524  24.3295611
   3.1102879  35.7327219  24.8479107   3.6797308  35.9595177  23.4636502
   9.7377384  42.1453228  32.2778126   9.8021816  42.6073635  33.1136298
   9.0288308  41.5150593  32.4060436  24.0626773  38.9407933  26.4702387
  23.3090482  38.3715331  26.3146391  24.1974315  38.9070597  27.4173022
   9.4525401  43.8121335  22.1457106   9.3171076  44.6572871  22.5741954
   9.9935214  44.0140613  21.3823040   5.9392741  29.8912915  38.8071462
   5.5459687  29.3379114  39.4819106   6.7558881  30.2023493  39.1977979
   2.9054799  41.3296773  22.7185032   3.4179319  42.1240023  22.8690596
   3.5577512  40.6323064  22.6518633   4.7149684  44.4462529  24.8007785
   4.8916312  45.3680494  24.6128769   5.5106517  44.1320949  25.2302164
   8.8560702  31.3070794  36.3991718   9.5970415  31.9077947  36.3196181
   9.0878625  30.5648432  35.8409761   4.0002040  36.4927161  34.6769948
   3.8855555  35.5912419  34.9777047   3.1446558  36.7390858  34.3254764
  11.0793878  44.4344902  36.2757449  10.6357732  43.6481280  35.9578353
  11.7411091  44.6224052  35.6101339   5.8380999  45.9640703  30.8018127
   6.3888424  45.8357767  30.0295121   4.9992475  46.2635592  30.4513020
  13.1775116  44.7147702  34.3038850  13.1593591  45.5356583  33.8119119
  14.0995036  44.5901777  34.5288991   9.6348170  42.2291831  35.1462358
  10.1676507  41.4680119  34.9161666   9.1062251  41.9365483  35.8886513
  12.8017865  27.3351897  30.6756000  12.4582134  28.2253539  30.5995110
  13.1696828  27.1453555  29.8125585   0.8703716  39.6585427  23.4944602
   1.7078938  40.0682436  23.2778310   1.0481983  38.7184870  23.4644796
  12.7668148  37.3260508  19.1828435  12.2514771  38.0965113  19.4216822
  12.4945456  36.6525644  19.8061496  10.3515259  32.1710209  24.2413673
   9.4956855  31.7817059  24.0619312  10.7642211  32.2502170  23.3813459
  11.8814405  29.7056552  28.6405233  11.3779201  29.6686687  27.8273038
  12.1745012  30.6149295  28.7001890   8.1257291  29.7895282  27.6471415
   8.9910288  29.5938091  27.2877304   8.1934800  29.5605634  28.5740772
  17.7402422  40.0792863  21.1181608  16.9631865  39.7404022  20.6736771
  18.4193903  40.0845486  20.4436574  12.5554451  35.1987600  21.0088216
  12.2504586  35.5133749  21.8598359  13.5084893  35.2769020  21.0515549
  11.0000883  41.3577824  22.6581170  10.4722244  40.6230583  22.3454408
  10.4988385  42.1352500  22.4121138  15.9793729  39.5526844  27.7748216
  15.3217403  40.2426105  27.8628345  16.7834128  39.9423276  28.1182203
   5.7319610  32.0197490  25.0187782   6.3063362  31.7972671  24.2860975
   6.3190593  32.0886184  25.7716383  14.7899188  37.9071217  25.8252158
  15.3031069  38.5401209  26.3273868  15.4400411  37.3072412  25.4595518
   8.0342278  28.8938739  23.7462851   7.3806690  28.5787756  23.1219466
   7.9922752  28.2714479  24.4722674   9.1453483  39.1758034  15.6616143
   8.2380545  38.9447287  15.8607292   9.6424515  38.3795653  15.8490125
  12.0521562  47.8855541  18.5812829  11.3783261  48.1887238  19.1897787
  12.4387384  48.6884621  18.2318286  11.2680018  35.3820672  28.0710499
  10.3502580  35.6035619  27.9132187  11.6840162  35.4566983  27.2122206
  12.0515066  36.7812088  23.2013179  12.7986885  37.2933485  22.8920301
  12.3206656  36.4596141  24.0617573  10.3241716  39.2770629  20.1840133
   9.4152936  38.9929661  20.2812603  10.3536800  39.6969707  19.3243440
  15.5560984  42.8877218  23.9531301  15.1023311  42.0468128  24.0096491
  14.9254950  43.5238617  24.2906081  14.4993903  33.8169204  25.1831968
  13.7616660  33.3046590  25.5142211  14.7520677  33.3769586  24.3715245
  13.9993923  44.7253715  24.8881119  14.2916897  45.2858772  24.1693485
  14.5092544  45.0182276  25.6434278  14.6005531  26.5945456  25.7773738
  14.9064407  25.7342820  25.4899653  15.3258135  27.1863076  25.5772731
   8.8726610  36.8899249  26.2849929   8.9275220  35.9373086  26.2092405
   8.0617812  37.0458688  26.7691227  10.0217804  40.8179372  17.5228212
   9.5837234  40.1015231  17.0633849  10.7628245  41.0455487  16.9613303
   6.8118970  35.5076309  24.0440307   5.9986836  35.8070480  24.4505500
   7.3077964  35.1131998  24.7614790   8.9627548  45.5034066  25.9774572
   8.9203727  45.7294912  25.0483104   9.8790247  45.2697441  26.1260373
  12.4093182  35.9718134  32.8755201  12.7642570  36.1989607  33.7349667
  13.0565313  36.3036510  32.2532457  18.1390919  39.0936569  23.5804530
  18.0008818  39.2838165  22.6525720  17.7827138  39.8555952  24.0372582
   6.3033045  33.0794665  29.6601542   6.9432424  32.9383424  28.9624506
   5.4710576  32.7929178  29.2840144  18.1660299  41.1613096  28.5915802
  18.5996805  41.0688385  29.4398856  18.8791879  41.1370597  27.9535818
   7.0793349  42.3797095  25.7736535   7.8733947  41.8847415  25.5719110
   6.3685041  41.8514958  25.4104240  11.8988193  44.7615191  30.1248903
  11.9525216  45.3306127  30.8926618  11.0302975  44.9317076  29.7602940
   3.3876112  36.5240177  21.8496288   2.4573701  36.4624632  22.0666250
   3.4833584  36.0016129  21.0532929   3.3061661  33.0494990  24.4374529
   3.5668479  33.9640323  24.3283690   4.1278834  32.5819432  24.5871142
   4.7786587  34.4632747  31.6073354   5.4509640  34.2550109  30.9586003
   3.9516373  34.2654833  31.1678586  19.0275848  41.2036797  31.1248687
  19.2211738  42.1082608  31.3707962  18.9276466  40.7444216  31.9587272
  10.6812159  31.0894688  33.6239015  10.0340074  31.7884637  33.5303491
  11.4513174  31.5230832  33.9915263  14.0890957  41.3543540  36.6989568
  13.9376463  41.1254091  35.7819652  14.0795636  42.3114141  36.7120913
  10.8576293  38.9275453  31.6835834  11.7868353  39.0786612  31.5104802
  10.4367323  39.0159473  30.8284481   9.6564625  42.9526117  29.4534372
   9.5175711  42.5844901  30.3260310   8.8679221  43.4673756  29.2818330
  10.2512777  48.0535213  20.7959909  10.4264533  47.5823257  21.6105531
   9.5645565  48.6800980  21.0241169  11.2069840  42.3307720  26.8423210
  10.8719673  42.2908490  27.7380860  10.7073786  41.6652436  26.3693620
   5.1814084  37.7375350  32.3675791   5.0433882  37.0055589  32.9687330
   6.0919008  37.6484250  32.0859979  14.1429032  39.6763754  17.1160269
  13.5258202  38.9510582  17.0193322  13.6745520  40.4373114  16.7727344
   7.8096385  37.4495309  31.8559471   8.5196003  36.8088501  31.8146089
   7.7665693  37.7008204  32.7785651  15.7983163  44.3862662  34.7766050
  15.7395710  43.7021882  34.1096633  16.2002682  45.1281652  34.3246676
   6.5225319  34.4360527  33.6755110   5.9862676  33.9851265  34.3276706
   5.9342027  34.5706436  32.9325574   4.8173862  51.2024576  27.5699769
   5.0570460  51.8343100  28.2478787   3.9743059  50.8512616  27.8565128
  15.8000571  42.3502246  33.0080029  14.9127349  42.0128168  33.1306428
  16.3699122  41.6185278  33.2448795   2.2564440  33.5716535  30.7608105
   2.1722629  32.9642204  30.0258514   1.4347146  34.0625553  30.7617601
   9.3301724  47.0103699  29.9741273   9.2571896  47.8158670  30.4860577
   8.8879117  47.2095664  29.1489294   9.1191504  46.2475469  23.4844094
   8.3359026  46.7897149  23.5782319   9.8184249  46.7649448  23.8838335
  12.4288154  32.0570098  26.1278300  12.9256853  31.3040060  25.8079370
  11.6575135  32.0934415  25.5621509  20.2817911  37.7610464  27.7696591
  20.2707787  38.6435179  27.3990524  19.4135291  37.4082014  27.5751128
  11.7900408  46.9090533  32.1299431  12.5028380  47.5437997  32.0575333
  11.2990436  47.0054399  31.3139433  13.5117935  40.8141785  23.7016723
  12.5774213  40.9343248  23.5321427  13.6894603  39.9114252  23.4376733
   9.0123123  34.1987481  25.8549984   8.6420910  33.6458521  26.5430890
   9.5082215  33.5945615  25.3024984  16.8990486  36.6559105  24.2366757
  17.3650938  37.4887096  24.1627060  17.3497986  36.1904086  24.9412016
   6.8412321  44.6584976  32.9505002   7.5421781  45.2921459  33.1034396
   6.3707436  44.9999708  32.1900641  14.9666717  43.0002926  21.2352909
  15.2426561  42.8859520  22.1446783  14.0971216  42.6020411  21.1965082
  14.8707149  29.0239692  28.2757658  13.9570228  29.2543918  28.4439865
  15.3000250  29.1078136  29.1271691  14.6413607  37.2129584  30.7757553
  13.9885057  37.4605491  30.1210005  15.0193987  36.3993722  30.4420030
  11.6020781  47.2489277  24.8785723  11.7843176  46.4310933  25.3413475
  12.4253767  47.4656969  24.4410613  11.9362946  46.1757462  22.1400771
  12.4650713  45.6649916  21.5270933  12.1991166  45.8599992  23.0046304
  10.6901180  37.9549395  37.2623590  10.0141817  37.8543524  37.9325965
  11.5128814  37.7988608  37.7259587   2.4380039  44.1921331  29.8836105
   3.0233476  43.4465019  30.0164009   2.2404878  44.5025288  30.7672769
   5.2918694  47.2272579  24.8998547   4.6229070  47.7118706  24.4162587
   5.1531564  47.4741799  25.8141926   9.4323963  49.2616322  31.4981206
   9.9842271  49.4247944  32.2630291   9.7730156  49.8520760  30.8261230
   4.4088456  31.6091472  32.1003090   4.4729783  32.4706303  31.6880488
   4.3455576  30.9965474  31.3675449   3.8840729  33.6814604  35.7476125
   4.5112768  33.2991682  36.3613649   3.0268648  33.4628806  36.1131817
  14.2834837  44.0877580  37.3529860  14.8274741  44.7007538  36.8584815
  13.7021682  44.6457158  37.8696873  12.5692350  47.2098298  28.4844888
  12.4443490  46.4088037  27.9755833  13.2271441  47.7044491  27.9958858
   4.1900519  33.5647030  27.6622028   3.4687104  34.1782998  27.5229501
   4.9793774  34.1004795  27.5838674  14.6327259  45.0107318  30.1124438
  13.6857594  44.8912669  30.0402765  14.9810032  44.1229816  30.1950699
   6.9926832  30.9001457  33.9362680   7.5161234  31.1463753  34.6988989
   6.7739165  31.7321491  33.5165817  11.6373692  44.8060034  26.3128790
  11.4898654  43.8776741  26.4936360  12.4627185  44.8280125  25.8285865
   5.5035936  33.4578101  22.1709282   5.8432009  33.9864022  21.4487891
   5.9508057  33.7958507  22.9467849  15.2407814  45.6288593  27.3993663
  16.1654361  45.4231454  27.2618114  15.0723117  45.3804994  28.3083004
   8.1979377  31.8415152  31.6212350   7.8576197  31.0422965  32.0233030
   7.4918383  32.1416863  31.0489183   8.8495849  28.9264464  30.0739673
   9.6721918  28.4524942  29.9518564   9.0933912  29.7054948  30.5738360
   7.4904083  31.9552723  20.3702575   8.2112446  32.3333975  19.8666292
   6.8669388  32.6741599  20.4737553  11.6335206  32.6597872  21.3060907
  11.8498821  33.5422509  21.0049735  11.1529273  32.2684085  20.5766549
   6.3734428  35.6183585  27.8831652   6.2279008  35.9323888  28.7755933
   5.8959631  36.2368485  27.3302551   8.2330811  32.6086133  27.9312541
   8.2192379  31.7127226  27.5944839   8.9503239  32.6156797  28.5650828
  10.0856941  33.0423473  29.9765669   9.8274719  33.9640544  29.9749999
   9.5541982  32.6453908  30.6666133  15.0303130  46.1474260  22.7555754
  15.2040008  45.5820683  22.0029607  15.5232021  46.9475155  22.5735244
   7.6367706  31.4900513  23.2000112   7.7583618  30.5617159  23.3990999
   7.3469749  31.5039199  22.2878427  10.5058897  29.1755423  26.3366831
  10.5280594  29.2394757  25.3818811  10.9226956  28.3359932  26.5307338
  20.8842521  38.9110683  24.3746054  21.3273667  38.1618008  23.9765177
  20.0069031  38.9020819  23.9919786  16.0178303  45.4641025  19.8552653
  16.7129207  46.0847717  20.0739967  16.3601453  44.6136376  20.1305030
   1.6346112  37.2858825  33.7149470   0.8927848  37.4341461  34.3014100
   1.3138856  37.5467091  32.8516219  17.9169726  42.9140730  21.3839983
  18.4421050  43.2528003  20.6589303  17.8292078  41.9787745  21.2003118
   9.5789774  46.8274804  33.5129860   9.8876901  46.5823950  34.3852560
  10.3765256  47.0321442  33.0248730   9.6010386  48.9812713  25.7435237
   9.1615377  48.4889092  26.4368093  10.3518503  48.4385681  25.5027312
   2.0802725  45.1724254  25.7459865   2.9060745  44.8728026  25.3658508
   1.7296777  44.4031877  26.1949653   7.0484259  44.5250722  27.8157538
   6.4264268  43.8621427  27.5159766   7.7189125  44.5511854  27.1331186
   7.1208786  33.0032510  37.4090044   7.1696941  33.8794633  37.0267814
   7.6631300  32.4609903  36.8361687  17.6063632  43.5473634  36.6891181
  16.8159175  43.5297773  36.1495681  17.3696986  44.0861927  37.4440218
  17.7261507  40.3966100  34.0023910  17.7759512  40.2316107  34.9439433
  17.6175430  39.5293359  33.6121791   6.6097765  43.0754646  21.2915999
   6.7585886  43.7590110  20.6382671   7.4164209  43.0559736  21.8065454
  15.0165269  36.3797028  35.3183217  15.9175132  36.2403493  35.0267214
  15.0913244  36.5451483  36.2581394   9.3508074  33.7563883  34.1636403
   8.4811384  34.0497449  33.8918991   9.5867555  34.3404328  34.8843666
  19.2279704  42.8163042  34.2465931  18.9364512  43.1793022  35.0829392
  18.6151835  42.1030050  34.0679263  20.4275386  40.3815921  26.7668502
  21.2622277  40.8205725  26.9306062  20.5634515  39.9054575  25.9476747
  17.4766892  37.9395656  32.7145989  17.9521013  38.1323302  31.9064841
  16.5532457  37.9954842  32.4689373   4.3650398  39.1019823  22.2977068
   4.1196440  38.1982153  22.4957278   4.5346313  39.1036974  21.3556546
  12.0547108  29.9743500  31.6801823  12.5729052  30.7104527  31.3548312
  11.7002241  30.2807493  32.5148582  12.3059702  26.3943782  27.2002720
  12.5861456  25.7266971  27.8263146  13.0910309  26.5872878  26.6877384
  10.1093171  45.5702776  18.7627746   9.5367138  46.1892963  18.3098218
  10.6825965  46.1202138  19.2967668  16.1768561  34.8161416  30.9474295
  17.1285984  34.9159514  30.9686519  16.0072011  34.0239685  31.4572379
  14.1982940  31.9016999  31.1333696  13.6032872  32.1822012  30.4380184
  13.9132637  32.3910900  31.9050437  13.3290431  45.8539926  19.8936328
  14.2621104  45.7885488  20.0969204  13.2413644  46.6896193  19.4350861
  15.9578447  45.1705797  16.8540276  15.8792079  44.8365660  17.7476034
  16.7788114  45.6627565  16.8531748  18.6556639  38.0367536  30.0616595
  18.6232959  37.0983537  30.2476278  19.2657262  38.1151573  29.3282419
  10.4939969  36.9063589  16.1043799  11.4399074  36.7769797  16.1732217
  10.1154214  36.1678251  16.5813227  18.8051127  34.8278579  30.1074878
  18.2890176  34.0437036  29.9204807  19.6891076  34.4997296  30.2721397
  16.4661854  28.5719595  26.0670690  16.2686675  28.2634683  26.9514022
  17.0761560  29.2981234  26.1968620  24.4733188  39.0983543  29.2022631
  25.2036577  38.8368831  29.7630335  23.8640134  38.3612265  29.2424699
  22.5548486  37.2391405  29.7997083  21.8281649  37.1047370  29.1913574
  22.1395772  37.5468234  30.6053801  10.3778662  40.9581335  37.5644456
  11.2981671  41.1359934  37.7584502  10.3428245  40.0137380  37.4124155
   3.3740735  38.8682370  30.2067237   3.5926744  39.7999478  30.2255271
   3.7866508  38.5090344  30.9922041  10.2944952  29.3750455  22.1942925
   9.4845681  29.0297540  22.5698171  10.9829369  29.0657999  22.7830537
  12.2235501  28.4528502  23.8167222  12.7766539  28.8723955  24.4757245
  12.4605587  27.5264250  23.8590178   8.2468600  34.4415575  39.5969986
   8.1465327  35.3909932  39.5282077   8.0290142  34.1133814  38.7246056
  15.6014308  30.5629027  23.3245886  15.0212977  31.2213831  22.9423938
  15.3350240  29.7406372  22.9133304  14.0517874  29.9634085  25.5267206
  14.5517652  30.0750619  24.7181525  14.6953482  29.6595138  26.1668015
   8.1099870  37.8712714  38.4135047   7.6266952  38.6713074  38.6198936
   8.1960809  37.8820659  37.4602491   1.3785830  39.7041094  26.3356867
   1.3556518  39.8028781  25.3838750   1.6886466  40.5506245  26.6574033
   4.0373207  41.7617249  30.4503481   4.9916461  41.7301191  30.3833413
   3.8385731  41.3007873  31.2653707   4.6272590  40.3318365  33.0174279
   5.4465479  40.8262444  33.0409116   4.9009397  39.4150333  32.9891846
  14.3839186  32.7229117  22.3802234  13.4965041  33.0078768  22.1622429
  14.7993175  32.5622881  21.5329511  17.7353722  32.7475638  26.0956574
  18.5114112  33.2372091  26.3681190  17.0101856  33.1733693  26.5528443
  20.1726280  33.4603258  27.1530514  20.7670771  33.2198994  26.4423822
  20.2452864  32.7410388  27.7804050   2.3923436  47.3036869  27.4673679
   2.2577904  46.5437269  26.9011677   1.9755498  48.0277768  27.0002468
  13.5282399  42.4873792  16.4750254  14.2318249  42.6923795  17.0907910
  12.8045048  43.0550554  16.7399338  14.3580209  38.2383653  22.5952524
  14.3015411  38.6952205  21.7560157  14.9108552  37.4774338  22.4175367
  18.1685015  34.0273385  23.4202644  17.9121950  33.6270021  24.2510852
  17.5437883  34.7417179  23.2952783  22.4797353  36.7669458  25.9273935
  21.9196911  36.8362648  26.7005497  21.8740857  36.5910443  25.2073432
   5.5492562  48.2006186  27.6792122   5.4324946  49.1451618  27.5770812
   4.7285008  47.8979747  28.0677921  15.4369097  42.9256321  18.5248714
  16.2714701  42.4937520  18.3426189  15.2753440  42.7538335  19.4525609
  15.0914989  39.4288435  19.8905054  15.0363793  39.2632706  18.9493498
  14.4661044  40.1364467  20.0467243  12.4060896  41.7337346  39.2158616
  13.2752056  41.9077999  38.8545251  11.9267647  42.5531763  39.0934346
   6.5747076  48.8534447  30.8948050   7.4774323  48.8858058  31.2114545
   6.3484446  47.9234898  30.9094386   8.3300678  47.6065434  27.5558129
   7.3796309  47.6067296  27.4422501   8.6333164  46.8598169  27.0394163
  12.2163234  25.5239320  23.7236309  11.4495630  24.9697807  23.8692991
  12.6273939  25.5961189  24.5850460   4.2204995  31.8124116  37.8141490
   5.0836456  31.4560921  38.0244815   3.6470405  31.4738011  38.5016894
  24.0653372  53.4425972  28.6203891  24.7031782  53.3232720  27.9167231
  23.9474215  54.3906816  28.6791843  20.8743078  53.3953400  28.5565416
  20.5361589  53.2794465  27.6685951  21.7432846  52.9944566  28.5366422
  16.7329894  55.2488877  24.5462307  16.1694759  55.1578814  23.7778595
  16.6182289  54.4288781  25.0264799  21.3562861  54.5488252  34.5151621
  21.3451502  54.1541050  33.6432125  21.5183500  53.8154325  35.1085393
  14.2794326  56.7440068  27.3846527  15.0715618  56.4030893  26.9692827
  14.5190976  56.8535044  28.3048681  22.3129452  58.9159845  19.8576772
  21.6617432  59.5013925  19.4710785  23.1073815  59.4466039  19.9171809
  16.2385080  56.0048982  20.2563906  17.0115956  55.4577969  20.1176782
  16.5910478  56.8693231  20.4678367  18.0770122  57.3325364  33.4630805
  17.7859988  58.2370995  33.3477472  18.7127106  57.3741892  34.1774875
  19.0026329  54.7102213  30.0532165  19.5989901  54.4858235  29.3389128
  19.0601300  53.9686958  30.6557613  18.5751357  52.1641648  17.8882356
  18.8276878  51.6423169  17.1265819  17.6375916  52.0007793  17.9909040
  23.6194640  51.1677426  25.6957099  24.4057729  50.7496849  25.3447516
  23.8833345  52.0723518  25.8638748  23.7904718  56.6050277  20.3945756
  23.1550551  56.6784903  21.1066661  23.4602124  57.1943875  19.7164835
  29.0203067  51.1052659  26.5990078  29.7528239  50.5351876  26.8327907
  28.2642423  50.7174260  27.0396583  18.2947646  54.0669754  20.0906731
  18.1783904  53.3914657  20.7587815  18.4049906  53.5802128  19.2738884
  20.6379187  53.5279901  23.7953420  20.2737394  53.0010522  24.5066342
  21.4946303  53.1378370  23.6219906  26.5428488  44.8174234  31.0584686
  26.2111812  45.6869644  30.8345901  25.9474101  44.5010518  31.7378717
  20.2784674  48.5569801  18.7914769  20.4459076  49.4250037  19.1585240
  20.0881843  48.7197082  17.8676058  23.0360007  57.0186780  30.4580599
  22.7360730  57.9211818  30.3496406  22.6911067  56.7518963  31.3101752
  16.4872489  53.4700576  26.4917303  15.5622985  53.3376790  26.6994995
  16.7356902  54.2494796  26.9887246  26.4357151  49.5369320  28.1378036
  25.5274028  49.4684728  27.8436797  26.3844747  50.0141265  28.9659862
  20.2573895  51.0127458  19.7761435  20.1373520  51.4584509  20.6146916
  19.5626483  51.3612776  19.2174974  13.8481300  53.1133850  27.3261092
  13.9773681  53.3668329  28.2400504  13.1678751  53.7061558  27.0065748
  18.0180787  63.7831100  23.4251567  17.9404817  64.7338925  23.5040047
  17.4142431  63.4376972  24.0826493  20.5098017  50.9558965  36.0812934
  19.7331351  51.5152885  36.0715798  21.1488580  51.4415748  36.6027804
  28.3018797  47.7385758  29.9155910  27.6593178  48.0318291  29.2695705
  27.7973726  47.6238678  30.7209107  25.9558961  51.4848931  20.6041770
  26.8676817  51.7176318  20.4289467  25.4468608  52.0685976  20.0416848
  18.7644389  53.7644419  35.6430901  19.5059073  54.3029463  35.3665724
  18.0581375  54.3910707  35.8002452  24.2399729  55.9073559  34.2403062
  24.6483085  55.4655970  33.4957694  23.5176990  55.3326187  34.4937255
  20.5930799  50.8446166  31.6136619  21.4391994  51.2685579  31.7571268
  20.5329436  50.1879790  32.3075182  24.5628543  56.4674750  27.9955351
  23.9337406  56.6320464  27.2931419  24.1754205  56.8816359  28.7666315
  28.4417775  57.4029188  25.3499715  27.7568813  57.7828089  24.7996748
  28.5261625  58.0124514  26.0831662  23.7430244  48.5050534  33.2717793
  23.4991176  49.2592595  32.7352068  24.0190175  48.8835882  34.1065040
  25.6968707  55.0489147  31.9495058  25.9085602  55.6920907  31.2729439
  25.6498455  54.2151463  31.4816988  23.2994936  47.6606967  28.8531630
  22.4379415  47.9588221  29.1448368  23.3257370  47.8777366  27.9212663
  20.1156505  56.2049158  25.2605436  20.5794851  56.4836861  24.4710059
  19.8513303  55.3032602  25.0778527  17.0080586  55.7520639  28.1985199
  17.5781943  56.1807908  27.5602684  17.5988698  55.4703224  28.8969385
  19.0525391  52.3272310  22.0695001  19.7549435  52.7793354  22.5368928
  18.7206020  51.6856129  22.6974894  17.5005753  50.9184067  36.4446211
  16.8704413  51.6000348  36.6781607  17.3941841  50.8067148  35.4999349
  12.7950725  50.5855863  27.3712135  12.0049779  50.8413391  26.8952245
  13.2861973  51.4004201  27.4764175  26.8114535  57.9261102  30.1217416
  27.6331979  57.5241289  29.8400097  26.8076938  57.8229336  31.0733531
  14.7465471  50.9500442  24.3295611  13.9496634  51.0619136  24.8479107
  14.5191063  51.2887094  23.4636502  20.5771138  57.4745145  32.2778126
  20.6415571  57.9365553  33.1136298  19.8682062  56.8442510  32.4060436
  11.0788428  50.8386353  29.8027126  11.3296467  51.7233363  30.0684702
  11.6147977  50.6590955  29.0302217  34.9020528  54.2699851  26.4702387
  34.1484236  53.7007249  26.3146391  35.0368069  54.2362515  27.4173022
  20.2919156  59.1413253  22.1457106  20.1564831  59.9864789  22.5741954
  20.8328968  59.3432530  21.3823040  16.7786496  45.2204833  38.8071462
  16.3853441  44.6671031  39.4819106  17.5952636  45.5315411  39.1977979
  13.7448553  56.6588691  22.7185032  14.2573074  57.4531941  22.8690596
  14.3971266  55.9614981  22.6518633  15.5543438  59.7754447  24.8007785
  15.7310066  60.6972412  24.6128769  16.3500272  59.4612866  25.2302164
  19.6954457  46.6362712  36.3991718  20.4364170  47.2369865  36.3196181
  19.9272379  45.8940350  35.8409761  14.8395795  51.8219079  34.6769948
  14.7249310  50.9204336  34.9777047  13.9840312  52.0682776  34.3254764
  21.9187632  59.7636819  36.2757449  21.4751486  58.9773198  35.9578353
  22.5804846  59.9515970  35.6101339  16.6774753  61.2932621  30.8018127
  17.2282179  61.1649684  30.0295121  15.8386229  61.5927510  30.4513020
  24.0168870  60.0439619  34.3038850  23.9987346  60.8648500  33.8119119
  24.9388790  59.9193694  34.5288991  20.4741925  57.5583749  35.1462358
  21.0070261  56.7972037  34.9161666  19.9456006  57.2657401  35.8886513
  23.6411619  42.6643815  30.6756000  23.2975889  43.5545456  30.5995110
  24.0090582  42.4745472  29.8125585  11.7097470  54.9877345  23.4944602
  12.5472692  55.3974354  23.2778310  11.8875738  54.0476787  23.4644796
  23.6061902  52.6552426  19.1828435  23.0908526  53.4257030  19.4216822
  23.3339211  51.9817562  19.8061496  21.1909013  47.5002127  24.2413673
  20.3350610  47.1108977  24.0619312  21.6035965  47.5794087  23.3813459
  22.7208160  45.0348470  28.6405233  22.2172955  44.9978605  27.8273038
  23.0138767  45.9441213  28.7001890  18.9651046  45.1187200  27.6471415
  19.8304043  44.9230008  27.2877304  19.0328555  44.8897551  28.5740772
  28.5796176  55.4084780  21.1181608  27.8025619  55.0695940  20.6736771
  29.2587657  55.4137404  20.4436574  23.3948205  50.5279518  21.0088216
  23.0898341  50.8425667  21.8598359  24.3478647  50.6060938  21.0515549
  21.8394637  56.6869741  22.6581170  21.3115999  55.9522501  22.3454408
  21.3382140  57.4644418  22.4121138  26.8187483  54.8818762  27.7748216
  26.1611158  55.5718023  27.8628345  27.6227882  55.2715194  28.1182203
  16.5713365  47.3489408  25.0187782  17.1457117  47.1264589  24.2860975
  17.1584347  47.4178102  25.7716383  25.6292942  53.2363134  25.8252158
  26.1424824  53.8693126  26.3273868  26.2794166  52.6364330  25.4595518
  16.8982952  49.3793869  19.0383667  16.0620264  49.7168555  19.3592942
  16.7587722  49.2442848  18.1010804  18.8736033  44.2230656  23.7462851
  18.2200445  43.9079674  23.1219466  18.8316507  43.6006397  24.4722674
  19.9847237  54.5049951  15.6616143  19.0774299  54.2739205  15.8607292
  20.4818269  53.7087571  15.8490125  22.8915316  63.2147459  18.5812829
  22.2177015  63.5179155  19.1897787  23.2781138  64.0176539  18.2318286
  22.1073773  50.7112590  28.0710499  21.1896334  50.9327537  27.9132187
  22.5233917  50.7858900  27.2122206  22.8908821  52.1104006  23.2013179
  23.6380640  52.6225403  22.8920301  23.1600410  51.7888058  24.0617573
  21.1635471  54.6062546  20.1840133  20.2546690  54.3221579  20.2812603
  21.1930555  55.0261625  19.3243440  26.3954738  58.2169136  23.9531301
  25.9417065  57.3760046  24.0096491  25.7648705  58.8530534  24.2906081
  25.3387658  49.1461122  25.1831968  24.6010415  48.6338508  25.5142211
  25.5914431  48.7061503  24.3715245  24.8387677  60.0545633  24.8881119
  25.1310652  60.6150690  24.1693485  25.3486298  60.3474194  25.6434278
  25.4399285  41.9237374  25.7773738  25.7458162  41.0634737  25.4899653
  26.1651890  42.5154994  25.5772731  11.7323641  52.3268060  24.1655335
  11.5348041  51.7337421  23.4406402  11.1770305  52.0220271  24.8831274
  19.7120365  52.2191167  26.2849929  19.7668975  51.2665003  26.2092405
  18.9011567  52.3750606  26.7691227  20.8611559  56.1471290  17.5228212
  20.4230989  55.4307149  17.0633849  21.6022000  56.3747405  16.9613303
  17.6512725  50.8368227  24.0440307  16.8380590  51.1362397  24.4505500
  18.1471719  50.4423915  24.7614790  19.8021303  60.8325984  25.9774572
  19.7597481  61.0586830  25.0483104  20.7184002  60.5989358  26.1260373
  23.2486936  51.3010051  32.8755201  23.6036324  51.5281524  33.7349667
  23.8959068  51.6328428  32.2532457  28.9784673  54.4228487  23.5804530
  28.8402572  54.6130083  22.6525720  28.6220892  55.1847870  24.0372582
  17.1426800  48.4086582  29.6601542  17.7826179  48.2675341  28.9624506
  16.3104330  48.1221096  29.2840144  29.0054053  56.4905014  28.5915802
  29.4390560  56.3980303  29.4398856  29.7185634  56.4662515  27.9535818
  17.9187103  57.7089013  25.7736535  18.7127702  57.2139333  25.5719110
  17.2078796  57.1806876  25.4104240  22.7381948  60.0907108  30.1248903
  22.7918970  60.6598044  30.8926618  21.8696729  60.2608993  29.7602940
  14.2269867  51.8532094  21.8496288  13.2967455  51.7916550  22.0666250
  14.3227339  51.3308047  21.0532929  14.1455416  48.3786907  24.4374529
  14.4062233  49.2932240  24.3283690  14.9672588  47.9111350  24.5871142
  15.6180341  49.7924664  31.6073354  16.2903395  49.5842027  30.9586003
  14.7910128  49.5946750  31.1678586  29.8669603  56.5328715  31.1248687
  30.0605493  57.4374525  31.3707962  29.7670221  56.0736134  31.9587272
  21.5205913  46.4186605  33.6239015  20.8733828  47.1176555  33.5303491
  22.2906929  46.8522749  33.9915263  24.9284711  56.6835457  36.6989568
  24.7770218  56.4546009  35.7819652  24.9189391  57.6406059  36.7120913
  21.6970048  54.2567370  31.6835834  22.6262108  54.4078530  31.5104802
  21.2761078  54.3451391  30.8284481  20.4958379  58.2818035  29.4534372
  20.3569465  57.9136819  30.3260310  19.7072976  58.7965674  29.2818330
  21.0906531  63.3827131  20.7959909  21.2658287  62.9115174  21.6105531
  20.4039319  64.0092897  21.0241169  22.0463595  57.6599637  26.8423210
  21.7113427  57.6200407  27.7380860  21.5467540  56.9944353  26.3693620
  16.0207839  53.0667267  32.3675791  15.8827636  52.3347506  32.9687330
  16.9312762  52.9776167  32.0859979  24.9822786  55.0055672  17.1160269
  24.3651957  54.2802500  17.0193322  24.5139275  55.7665032  16.7727344
  18.6490139  52.7787227  31.8559471  19.3589758  52.1380419  31.8146089
  18.6059447  53.0300122  32.7785651  26.6376918  59.7154580  34.7766050
  26.5789464  59.0313800  34.1096633  27.0396436  60.4573570  34.3246676
  17.3619073  49.7652445  33.6755110  16.8256430  49.3143183  34.3276706
  16.7735782  49.8998353  32.9325574  15.6567617  66.5316494  27.5699769
  15.8964215  67.1635018  28.2478787  14.8136813  66.1804534  27.8565128
  16.7721332  49.2241096  16.2381574  15.8950798  49.1029897  15.8743820
  17.2479085  48.4327174  15.9860462  26.6394325  57.6794164  33.0080029
  25.7521104  57.3420086  33.1306428  27.2092876  56.9477195  33.2448795
   8.2923472  54.0118256  26.3323081   8.9794512  53.6979986  25.7444096
   8.1371601  54.9159620  26.0590332  13.0958194  48.9008452  30.7608105
  13.0116383  48.2934122  30.0258514  12.2740901  49.3917471  30.7617601
  20.1695479  62.3395616  29.9741273  20.0965650  63.1450588  30.4860577
  19.7272872  62.5387582  29.1489294  19.9585258  61.5767386  23.4844094
  19.1752780  62.1189067  23.5782319  20.6578003  62.0941366  23.8838335
  23.2681908  47.3862016  26.1278300  23.7650608  46.6331978  25.8079370
  22.4968890  47.4226332  25.5621509  31.1211666  53.0902381  27.7696591
  31.1101542  53.9727097  27.3990524  30.2529045  52.7373932  27.5751128
  22.6294162  62.2382450  32.1299431  23.3422134  62.8729915  32.0575333
  22.1384191  62.3346316  31.3139433  24.3511689  56.1433703  23.7016723
  23.4167968  56.2635165  23.5321427  24.5288357  55.2406170  23.4376733
  19.8516877  49.5279399  25.8549984  19.4814665  48.9750439  26.5430890
  20.3475970  48.9237532  25.3024984  27.7384240  51.9851022  24.2366757
  28.2044693  52.8179014  24.1627060  28.1891741  51.5196004  24.9412016
  17.6806076  59.9876894  32.9505002  18.3815535  60.6213377  33.1034396
  17.2101191  60.3291625  32.1900641  25.8060471  58.3294844  21.2352909
  26.0820315  58.2151438  22.1446783  24.9364970  57.9312328  21.1965082
  25.7100903  44.3531609  28.2757658  24.7963983  44.5835836  28.4439865
  26.1394005  44.4370053  29.1271691  25.4807362  52.5421501  30.7757553
  24.8278812  52.7897409  30.1210005  25.8587741  51.7285639  30.4420030
  22.4414535  62.5781194  24.8785723  22.6236930  61.7602850  25.3413475
  23.2647521  62.7948887  24.4410613  22.7756701  61.5049380  22.1400771
  23.3044467  60.9941834  21.5270933  23.0384921  61.1891910  23.0046304
  21.5294935  53.2841312  37.2623590  20.8535572  53.1835442  37.9325965
  22.3522569  53.1280526  37.7259587  13.2773794  59.5213249  29.8836105
  13.8627231  58.7756937  30.0164009  13.0798632  59.8317206  30.7672769
  16.1312449  62.5564496  24.8998547  15.4622824  63.0410624  24.4162587
  15.9925319  62.8033717  25.8141926   7.8691448  52.0918849  28.6040548
   7.9075548  51.5582440  29.3977666   7.3631741  51.5654055  27.9851525
  20.2717717  64.5908240  31.4981206  20.8236026  64.7539861  32.2630291
  20.6123911  65.1812678  30.8261230  15.2482211  46.9383390  32.1003090
  15.3123537  47.7998220  31.6880488  15.1849331  46.3257391  31.3675449
  14.7234483  49.0106522  35.7476125  15.3506522  48.6283599  36.3613649
  13.8662402  48.7920724  36.1131817  25.1228592  59.4169497  37.3529860
  25.6668496  60.0299456  36.8584815  24.5415437  59.9749076  37.8696873
  11.5000026  50.8182951  21.6794479  11.7953467  49.9093630  21.6261533
  10.5988062  50.7970691  21.3575482  23.4086105  62.5390215  28.4844888
  23.2837244  61.7379955  27.9755833  24.0665196  63.0336409  27.9958858
  15.0294273  48.8938948  27.6622028  14.3080859  49.5074916  27.5229501
  15.8187529  49.4296713  27.5838674  25.4721013  60.3399235  30.1124438
  24.5251349  60.2204587  30.0402765  25.8203786  59.4521733  30.1950699
  17.8320587  46.2293374  33.9362680  18.3554988  46.4755671  34.6988989
  17.6132920  47.0613409  33.5165817  13.2287868  48.4997049  21.8033805
  12.9000574  47.6194428  21.6208910  13.5827238  48.4444718  22.6910194
  22.4767446  60.1351952  26.3128790  22.3292409  59.2068659  26.4936360
  23.3020940  60.1572042  25.8285865  16.3429691  48.7870019  22.1709282
  16.6825763  49.3155940  21.4487891  16.7901811  49.1250425  22.9467849
  26.0801568  60.9580510  27.3993663  27.0048116  60.7523372  27.2618114
  25.9116872  60.7096911  28.3083004  19.0373132  47.1707069  31.6212350
  18.6969952  46.3714882  32.0233030  18.3312138  47.4708780  31.0489183
  19.6889603  44.2556382  30.0739673  20.5115673  43.7816860  29.9518564
  19.9327667  45.0346866  30.5738360  18.3297838  47.2844640  20.3702575
  19.0506200  47.6625893  19.8666292  17.7063142  48.0033517  20.4737553
  22.4728961  47.9889789  21.3060907  22.6892575  48.8714427  21.0049735
  21.9923028  47.5976003  20.5766549  17.2128182  50.9475502  27.8831652
  17.0672763  51.2615806  28.7755933  16.7353386  51.5660403  27.3302551
  19.0724565  47.9378050  27.9312541  19.0586134  47.0419144  27.5944839
  19.7896993  47.9448714  28.5650828  20.9250696  48.3715391  29.9765669
  20.6668474  49.2932461  29.9749999  20.3935736  47.9745825  30.6666133
  25.8696885  61.4766178  22.7555754  26.0433762  60.9112600  22.0029607
  26.3625776  62.2767073  22.5735244  11.6873844  53.4880847  30.8219313
  11.1427312  54.2640655  30.9539587  12.5653194  53.8351651  30.6638435
  18.4761461  46.8192431  23.2000112  18.5977372  45.8909077  23.3990999
  18.1863503  46.8331117  22.2878427  21.3452651  44.5047341  26.3366831
  21.3674348  44.5686674  25.3818811  21.7620710  43.6651850  26.5307338
  31.7236276  54.2402601  24.3746054  32.1667422  53.4909926  23.9765177
  30.8462786  54.2312737  23.9919786  26.8572057  60.7932942  19.8552653
  27.5522962  61.4139635  20.0739967  27.1995207  59.9428293  20.1305030
  12.4739866  52.6150743  33.7149470  11.7321602  52.7633378  34.3014100
  12.1532610  52.8759009  32.8516219  28.7563480  58.2432648  21.3839983
  29.2814804  58.5819920  20.6589303  28.6685833  57.3079663  21.2003118
  20.4183529  62.1566721  33.5129860  20.7270655  61.9115868  34.3852560
  21.2159011  62.3613360  33.0248730  20.4404141  64.3104631  25.7435237
  20.0009131  63.8181010  26.4368093  21.1912258  63.7677599  25.5027312
  12.9196480  60.5016172  25.7459865  13.7454500  60.2019944  25.3658508
  12.5690532  59.7323794  26.1949653  17.8878013  59.8542640  27.8157538
  17.2658022  59.1913345  27.5159766  18.5582880  59.8803772  27.1331186
  11.1205085  58.4202498  26.7048798  10.2836993  57.9924673  26.5232799
  11.0928730  58.6134942  27.6419589  17.9602541  48.3324428  37.4090044
  18.0090696  49.2086551  37.0267814  18.5025055  47.7901821  36.8361687
  28.4457386  58.8765551  36.6891181  27.6552930  58.8589690  36.1495681
  28.2090741  59.4153845  37.4440218  28.5655261  55.7258018  34.0023910
  28.6153266  55.5608025  34.9439433  28.4569185  54.8585277  33.6121791
  17.4491520  58.4046563  21.2915999  17.5979640  59.0882028  20.6382671
  18.2557963  58.3851653  21.8065454  25.8559024  51.7088946  35.3183217
  26.7568886  51.5695411  35.0267214  25.9306998  51.8743401  36.2581394
  20.1901829  49.0855801  34.1636403  19.3205138  49.3789367  33.8918991
  20.4261309  49.6696246  34.8843666  30.0673458  58.1454959  34.2465931
  29.7758266  58.5084940  35.0829392  29.4545589  57.4321968  34.0679263
  31.2669140  55.7107839  26.7668502  32.1016032  56.1497643  26.9306062
  31.4028269  55.2346492  25.9476747  28.3160646  53.2687574  32.7145989
  28.7914768  53.4615220  31.9064841  27.3926212  53.3246760  32.4689373
  15.2044153  54.4311741  22.2977068  14.9590195  53.5274071  22.4957278
  15.3740067  54.4328891  21.3556546  22.8940863  45.3035417  31.6801823
  23.4122807  46.0396444  31.3548312  22.5395996  45.6099411  32.5148582
  14.4739800  50.1640099  19.7963229  13.7809045  50.2384454  19.1403265
  14.2291552  49.4000442  20.3184746  23.1453457  41.7235700  27.2002720
  23.4255211  41.0558889  27.8263146  23.9304064  41.9164796  26.6877384
  20.9486925  60.8994694  18.7627746  20.3760893  61.5184881  18.3098218
  21.5219719  61.4494056  19.2967668  27.0162315  50.1453334  30.9474295
  27.9679738  50.2451432  30.9686519  26.8465766  49.3531603  31.4572379
  25.0376695  47.2308917  31.1333696  24.4426627  47.5113930  30.4380184
  24.7526391  47.7202818  31.9050437  24.1684185  61.1831844  19.8936328
  25.1014858  61.1177406  20.0969204  24.0807398  62.0188111  19.4350861
  26.7972202  60.4997714  16.8540276  26.7185833  60.1657578  17.7476034
  27.6181869  60.9919482  16.8531748  29.4950393  53.3659454  30.0616595
  29.4626713  52.4275454  30.2476278  30.1051017  53.4443490  29.3282419
  21.3333724  52.2355507  16.1043799  22.2792829  52.1061715  16.1732217
  20.9547969  51.4970169  16.5813227  29.6444882  50.1570497  30.1074878
  29.1283930  49.3728954  29.9204807  30.5284830  49.8289214  30.2721397
  27.3055608  43.9011513  26.0670690  27.1080430  43.5926601  26.9514022
  27.9155314  44.6273152  26.1968620  35.3126943  54.4275460  29.2022631
  36.0430331  54.1660749  29.7630335  34.7033888  53.6904182  29.2424699
  33.3942240  52.5683323  29.7997083  32.6675404  52.4339288  29.1913574
  32.9789527  52.8760152  30.6053801  21.2172416  56.2873253  37.5644456
  22.1375426  56.4651852  37.7584502  21.1822000  55.3429298  37.4124155
  19.5176641  50.1605483  16.0398684  18.6108096  49.8638596  16.1161397
  19.7952622  49.8635301  15.1732970  10.4354581  51.4811846  26.4897730
  10.1157366  50.6277155  26.1972104   9.8888010  51.6960425  27.2455698
  14.2134489  54.1974287  30.2067237  14.4320499  55.1291395  30.2255271
  14.6260263  53.8382262  30.9922041  21.1338707  44.7042373  22.1942925
  20.3239435  44.3589458  22.5698171  21.8223124  44.3949916  22.7830537
  23.0629255  43.7820420  23.8167222  23.6160294  44.2015873  24.4757245
  23.2999341  42.8556168  23.8590178  19.0862354  49.7707493  39.5969986
  18.9859081  50.7201850  39.5282077  18.8683896  49.4425732  38.7246056
  18.2875426  47.0192418  16.1810663  19.1494590  47.3447317  16.4406480
  18.4725770  46.2323914  15.6683729  10.3042841  55.1014758  28.4590852
   9.6106313  54.6868711  27.9460806  11.0515832  55.1435294  27.8624271
  26.4408062  45.8920945  23.3245886  25.8606731  46.5505749  22.9423938
  26.1743995  45.0698289  22.9133304  24.8911629  45.2926002  25.5267206
  25.3911407  45.4042537  24.7181525  25.5347236  44.9887055  26.1668015
  18.9493624  53.2004632  38.4135047  18.4660706  54.0004992  38.6198936
  19.0354563  53.2112577  37.4602491  12.2179584  55.0333012  26.3356867
  12.1950272  55.1320699  25.3838750  12.5280221  55.8798162  26.6574033
  14.8766962  57.0909167  30.4503481  15.8310215  57.0593109  30.3833413
  14.6779485  56.6299790  31.2653707  15.4666344  55.6610283  33.0174279
  16.2859233  56.1554361  33.0409116  15.7403152  54.7442251  32.9891846
  25.2232940  48.0521035  22.3802234  24.3358795  48.3370686  22.1622429
  25.6386929  47.8914798  21.5329511  28.5747476  48.0767556  26.0956574
  29.3507866  48.5664008  26.3681190  27.8495611  48.5025610  26.5528443
  31.0120035  48.7895175  27.1530514  31.6064526  48.5490911  26.4423822
  31.0846619  48.0702306  27.7804050  13.2317191  62.6328786  27.4673679
  13.0971659  61.8729187  26.9011677  12.8149253  63.3569686  27.0002468
  24.3676154  57.8165710  16.4750254  25.0712004  58.0215712  17.0907910
  23.6438802  58.3842472  16.7399338  25.1973964  53.5675571  22.5952524
  25.1409165  54.0244122  21.7560157  25.7502306  52.8066256  22.4175367
  29.0078770  49.3565303  23.4202644  28.7515704  48.9561939  24.2510852
  28.3831638  50.0709097  23.2952783  33.3191108  52.0961376  25.9273935
  32.7590666  52.1654565  26.7005497  32.7134611  51.9202361  25.2073432
  16.3886317  63.5298103  27.6792122  16.2718701  64.4743536  27.5770812
  15.5678763  63.2271665  28.0677921  26.2762851  58.2548239  18.5248714
  27.1108455  57.8229437  18.3426189  26.1147194  58.0830253  19.4525609
  25.9308743  54.7580352  19.8905054  25.8757547  54.5924624  18.9493498
  25.3054799  55.4656385  20.0467243  10.7201258  49.9948417  33.7166476
  11.3660122  49.4847371  34.2053701  10.5118409  50.7317098  34.2909901
  23.2454650  57.0629264  39.2158616  24.1145810  57.2369916  38.8545251
  22.7661402  57.8823681  39.0934346  19.2404869  44.2588461  19.4690372
  19.2283539  45.2030301  19.6258643  20.1328291  44.0758607  19.1749833
  17.4140831  64.1826365  30.8948050  18.3168077  64.2149975  31.2114545
  17.1878201  63.2526816  30.9094386  19.1694433  62.9357352  27.5558129
  18.2190064  62.9359213  27.4422501  19.4726919  62.1890086  27.0394163
  23.0556988  40.8531238  23.7236309  22.2889384  40.2989725  23.8692991
  23.4667693  40.9253107  24.5850460  15.0598749  47.1416034  37.8141490
  15.9230211  46.7852839  38.0244815  14.4864160  46.8029929  38.5016894
  34.9047126  68.7717890  28.6203891  35.5425536  68.6524637  27.9167231
  34.7867969  69.7198734  28.6791843  31.7136832  68.7245318  28.5565416
  31.3755344  68.6086383  27.6685951  32.5826601  68.3236483  28.5366422
  27.5723648  70.5780795  24.5462307  27.0088513  70.4870732  23.7778595
  27.4576043  69.7580699  25.0264799  32.1956615  69.8780170  34.5151621
  32.1845256  69.4832968  33.6432125  32.3577255  69.1446242  35.1085393
  25.1188080  72.0731986  27.3846527  25.9109372  71.7322811  26.9692827
  25.3584730  72.1826961  28.3048681  33.1523207  74.2451762  19.8576772
  32.5011187  74.8305843  19.4710785  33.9467570  74.7757957  19.9171809
  27.0778834  71.3340899  20.2563906  27.8509710  70.7869887  20.1176782
  27.4304233  72.1985149  20.4678367  28.9163877  72.6617282  33.4630805
  28.6253743  73.5662913  33.3477472  29.5520861  72.7033809  34.1774875
  29.8420083  70.0394130  30.0532165  30.4383656  69.8150153  29.3389128
  29.8995055  69.2978876  30.6557613  29.4145112  67.4933566  17.8882356
  29.6670633  66.9715087  17.1265819  28.4769671  67.3299711  17.9909040
  34.4588395  66.4969344  25.6957099  35.2451484  66.0788767  25.3447516
  34.7227099  67.4015436  25.8638748  34.6298472  71.9342194  20.3945756
  33.9944305  72.0076821  21.1066661  34.2995878  72.5235793  19.7164835
  39.8596822  66.4344577  26.5990078  40.5921994  65.8643794  26.8327907
  39.1036178  66.0466178  27.0396583  29.1341401  69.3961671  20.0906731
  29.0177659  68.7206575  20.7587815  29.2443660  68.9094045  19.2738884
  31.4772942  68.8571819  23.7953420  31.1131149  68.3302440  24.5066342
  32.3340057  68.4670288  23.6219906  37.3822242  60.1466151  31.0584686
  37.0505567  61.0161562  30.8345901  36.7867856  59.8302435  31.7378717
  31.1178429  63.8861718  18.7914769  31.2852831  64.7541955  19.1585240
  30.9275598  64.0489000  17.8676058  33.8753762  72.3478697  30.4580599
  33.5754485  73.2503736  30.3496406  33.5304821  72.0810880  31.3101752
  27.3266243  68.7992494  26.4917303  26.4016740  68.6668708  26.6994995
  27.5750656  69.5786713  26.9887246  37.2750905  64.8661237  28.1378036
  36.3667783  64.7976646  27.8436797  37.2238501  65.3433182  28.9659862
  31.0967649  66.3419376  19.7761435  30.9767275  66.7876427  20.6146916
  30.4020238  66.6904693  19.2174974  24.6875054  68.4425768  27.3261092
  24.8167435  68.6960247  28.2400504  24.0072506  69.0353476  27.0065748
  28.8574541  79.1123018  23.4251567  28.7798571  80.0630843  23.5040047
  28.2536185  78.7668890  24.0826493  31.3491771  66.2850883  36.0812934
  30.5725105  66.8444803  36.0715798  31.9882334  66.7707666  36.6027804
  39.1412552  63.0677676  29.9155910  38.4986932  63.3610209  29.2695705
  38.6367480  62.9530596  30.7209107  36.7952716  66.8140849  20.6041770
  37.7070572  67.0468236  20.4289467  36.2862363  67.3977893  20.0416848
  29.6038144  69.0936336  35.6430901  30.3452828  69.6321380  35.3665724
  28.8975129  69.7202625  35.8002452  35.0793483  71.2365477  34.2403062
  35.4876839  70.7947887  33.4957694  34.3570745  70.6618104  34.4937255
  31.4324553  66.1738084  31.6136619  32.2785748  66.5977497  31.7571268
  31.3723191  65.5171708  32.3075182  35.4022298  71.7966667  27.9955351
  34.7731160  71.9612382  27.2931419  35.0147960  72.2108277  28.7666315
  39.2811530  72.7321105  25.3499715  38.5962568  73.1120007  24.7996748
  39.3655379  73.3416432  26.0831662  34.5823999  63.8342452  33.2717793
  34.3384930  64.5884512  32.7352068  34.8583929  64.2127800  34.1065040
  36.5362461  70.3781064  31.9495058  36.7479357  71.0212824  31.2729439
  36.4892210  69.5443381  31.4816988  34.1388690  62.9898885  28.8531630
  33.2773169  63.2880139  29.1448368  34.1651125  63.2069284  27.9212663
  30.9550260  71.5341076  25.2605436  31.4188605  71.8128778  24.4710059
  30.6907058  70.6324520  25.0778527  27.8474341  71.0812557  28.1985199
  28.4175698  71.5099825  27.5602684  28.4382453  70.7995142  28.8969385
  29.8919146  67.6564228  22.0695001  30.5943189  68.1085272  22.5368928
  29.5599774  67.0148047  22.6974894  28.3399507  66.2475985  36.4446211
  27.7098168  66.9292265  36.6781607  28.2335595  66.1359066  35.4999349
  23.6344480  65.9147781  27.3712135  22.8443534  66.1705309  26.8952245
  24.1255727  66.7296118  27.4764175  37.6508289  73.2553020  30.1217416
  38.4725733  72.8533207  29.8400097  37.6470692  73.1521254  31.0733531
  25.5859225  66.2792360  24.3295611  24.7890388  66.3911054  24.8479107
  25.3584817  66.6179012  23.4636502  31.4164893  72.8037063  32.2778126
  31.4809325  73.2657470  33.1136298  30.7075817  72.1734428  32.4060436
  21.9182183  66.1678271  29.8027126  22.1690221  67.0525281  30.0684702
  22.4541731  65.9882873  29.0302217  45.7414282  69.5991768  26.4702387
  44.9877991  69.0299166  26.3146391  45.8761824  69.5654433  27.4173022
  31.1312910  74.4705171  22.1457106  30.9958585  75.3156706  22.5741954
  31.6722723  74.6724448  21.3823040  27.6180250  60.5496750  38.8071462
  27.2247196  59.9962949  39.4819106  28.4346390  60.8607329  39.1977979
  24.5842308  71.9880609  22.7185032  25.0966828  72.7823859  22.8690596
  25.2365021  71.2906899  22.6518633  26.3937192  75.1046365  24.8007785
  26.5703821  76.0264330  24.6128769  27.1894026  74.7904784  25.2302164
  30.5348211  61.9654629  36.3991718  31.2757924  62.5661783  36.3196181
  30.7666134  61.2232267  35.8409761  25.6789549  67.1510997  34.6769948
  25.5643064  66.2496254  34.9777047  24.8234067  67.3974693  34.3254764
  32.7581387  75.0928737  36.2757449  32.3145241  74.3065116  35.9578353
  33.4198600  75.2807888  35.6101339  27.5168508  76.6224539  30.8018127
  28.0675933  76.4941602  30.0295121  26.6779984  76.9219428  30.4513020
  34.8562625  75.3731537  34.3038850  34.8381100  76.1940418  33.8119119
  35.7782545  75.2485612  34.5288991  31.3135679  72.8875666  35.1462358
  31.8464016  72.1263955  34.9161666  30.7849760  72.5949318  35.8886513
  34.4805374  57.9935732  30.6756000  34.1369643  58.8837374  30.5995110
  34.8484337  57.8037390  29.8125585  22.5491225  70.3169263  23.4944602
  23.3866447  70.7266271  23.2778310  22.7269492  69.3768705  23.4644796
  34.4455657  67.9844343  19.1828435  33.9302280  68.7548948  19.4216822
  34.1732965  67.3109480  19.8061496  32.0302768  62.8294044  24.2413673
  31.1744364  62.4400895  24.0619312  32.4429719  62.9086005  23.3813459
  33.5601914  60.3640388  28.6405233  33.0566710  60.3270523  27.8273038
  33.8532521  61.2733130  28.7001890  29.8044800  60.4479117  27.6471415
  30.6697797  60.2521926  27.2877304  29.8722309  60.2189469  28.5740772
  39.4189931  70.7376698  21.1181608  38.6419374  70.3987858  20.6736771
  40.0981412  70.7429321  20.4436574  34.2341960  65.8571436  21.0088216
  33.9292095  66.1717585  21.8598359  35.1872402  65.9352855  21.0515549
  32.6788392  72.0161659  22.6581170  32.1509753  71.2814418  22.3454408
  32.1775894  72.7936335  22.4121138  37.6581238  70.2110679  27.7748216
  37.0004912  70.9009941  27.8628345  38.4621637  70.6007111  28.1182203
  27.4107119  62.6781325  25.0187782  27.9850871  62.4556507  24.2860975
  27.9978102  62.7470020  25.7716383  36.4686697  68.5655052  25.8252158
  36.9818578  69.1985044  26.3273868  37.1187920  67.9656248  25.4595518
  27.7376706  64.7085786  19.0383667  26.9014019  65.0460473  19.3592942
  27.5981476  64.5734766  18.1010804  29.7129787  59.5522574  23.7462851
  29.0594199  59.2371591  23.1219466  29.6710261  58.9298315  24.4722674
  30.8240992  69.8341869  15.6616143  29.9168054  69.6031123  15.8607292
  31.3212024  69.0379488  15.8490125  33.7309071  78.5439376  18.5812829
  33.0570770  78.8471073  19.1897787  34.1174893  79.3468457  18.2318286
  32.9467527  66.0404508  28.0710499  32.0290089  66.2619455  27.9132187
  33.3627671  66.1150818  27.2122206  33.7302575  67.4395923  23.2013179
  34.4774394  67.9517321  22.8920301  33.9994165  67.1179976  24.0617573
  32.0029225  69.9354464  20.1840133  31.0940445  69.6513497  20.2812603
  32.0324309  70.3553543  19.3243440  37.2348493  73.5461054  23.9531301
  36.7810820  72.7051963  24.0096491  36.6042459  74.1822452  24.2906081
  36.1781412  64.4753040  25.1831968  35.4404169  63.9630426  25.5142211
  36.4308186  64.0353421  24.3715245  35.6781432  75.3837550  24.8881119
  35.9704406  75.9442607  24.1693485  36.1880053  75.6766111  25.6434278
  36.2793040  57.2529292  25.7773738  36.5851916  56.3926655  25.4899653
  37.0045644  57.8446912  25.5772731  22.5717396  67.6559978  24.1655335
  22.3741796  67.0629339  23.4406402  22.0164060  67.3512188  24.8831274
  30.5514119  67.5483085  26.2849929  30.6062729  66.5956921  26.2092405
  29.7405321  67.7042524  26.7691227  31.7005313  71.4763208  17.5228212
  31.2624743  70.7599067  17.0633849  32.4415754  71.7039323  16.9613303
  28.4906479  66.1660144  24.0440307  27.6774345  66.4654315  24.4505500
  28.9865473  65.7715833  24.7614790  30.6415057  76.1617901  25.9774572
  30.5991236  76.3878748  25.0483104  31.5577756  75.9281276  26.1260373
  34.0880691  66.6301969  32.8755201  34.4430079  66.8573442  33.7349667
  34.7352822  66.9620346  32.2532457  39.8178428  69.7520405  23.5804530
  39.6796326  69.9422001  22.6525720  39.4614647  70.5139788  24.0372582
  27.9820554  63.7378500  29.6601542  28.6219933  63.5967259  28.9624506
  27.1498085  63.4513013  29.2840144  39.8447808  71.8196932  28.5915802
  40.2784314  71.7272221  29.4398856  40.5579388  71.7954432  27.9535818
  28.7580858  73.0380930  25.7736535  29.5521456  72.5431250  25.5719110
  28.0472550  72.5098793  25.4104240  33.5775702  75.4199026  30.1248903
  33.6312725  75.9889962  30.8926618  32.7090484  75.5900911  29.7602940
  25.0663621  67.1824012  21.8496288  24.1361210  67.1208468  22.0666250
  25.1621093  66.6599965  21.0532929  24.9849170  63.7078825  24.4374529
  25.2455988  64.6224158  24.3283690  25.8066343  63.2403267  24.5871142
  26.4574096  65.1216582  31.6073354  27.1297149  64.9133944  30.9586003
  25.6303882  64.9238668  31.1678586  40.7063357  71.8620632  31.1248687
  40.8999247  72.7666443  31.3707962  40.6063975  71.4028051  31.9587272
  32.3599668  61.7478523  33.6239015  31.7127583  62.4468473  33.5303491
  33.1300683  62.1814667  33.9915263  35.7678466  72.0127375  36.6989568
  35.6163972  71.7837927  35.7819652  35.7583145  72.9697977  36.7120913
  32.5363802  69.5859288  31.6835834  33.4655862  69.7370448  31.5104802
  32.1154832  69.6743309  30.8284481  31.3352134  73.6109952  29.4534372
  31.1963220  73.2428737  30.3260310  30.5466730  74.1257592  29.2818330
  31.9300286  78.7119049  20.7959909  32.1052042  78.2407092  21.6105531
  31.2433074  79.3384815  21.0241169  32.8857349  72.9891555  26.8423210
  32.5507182  72.9492325  27.7380860  32.3861295  72.3236271  26.3693620
  26.8601593  68.3959185  32.3675791  26.7221391  67.6639424  32.9687330
  27.7706517  68.3068085  32.0859979  35.8216541  70.3347589  17.1160269
  35.2045711  69.6094418  17.0193322  35.3533029  71.0956950  16.7727344
  29.4883894  68.1079144  31.8559471  30.1983512  67.4672337  31.8146089
  29.4453202  68.3592039  32.7785651  37.4770672  75.0446498  34.7766050
  37.4183219  74.3605718  34.1096633  37.8790191  75.7865488  34.3246676
  28.2012828  65.0944362  33.6755110  27.6650185  64.6435101  34.3276706
  27.6129536  65.2290271  32.9325574  26.4961371  81.8608412  27.5699769
  26.7357969  82.4926936  28.2478787  25.6530568  81.5096452  27.8565128
  27.6115087  64.5533014  16.2381574  26.7344553  64.4321814  15.8743820
  28.0872840  63.7619092  15.9860462  37.4788080  73.0086082  33.0080029
  36.5914858  72.6712003  33.1306428  38.0486631  72.2769113  33.2448795
  19.1317227  69.3410173  26.3323081  19.8188267  69.0271903  25.7444096
  18.9765355  70.2451538  26.0590332  23.9351949  64.2300370  30.7608105
  23.8510138  63.6226039  30.0258514  23.1134655  64.7209388  30.7617601
  31.0089233  77.6687534  29.9741273  30.9359405  78.4742505  30.4860577
  30.5666626  77.8679500  29.1489294  30.7979013  76.9059304  23.4844094
  30.0146535  77.4480984  23.5782319  31.4971758  77.4233284  23.8838335
  34.1075663  62.7153933  26.1278300  34.6044362  61.9623896  25.8079370
  33.3362644  62.7518250  25.5621509  41.9605420  68.4194299  27.7696591
  41.9495296  69.3019014  27.3990524  41.0922800  68.0665850  27.5751128
  33.4687917  77.5674368  32.1299431  34.1815889  78.2021833  32.0575333
  32.9777945  77.6638234  31.3139433  35.1905443  71.4725621  23.7016723
  34.2561722  71.5927083  23.5321427  35.3682112  70.5698087  23.4376733
  30.6910632  64.8571316  25.8549984  30.3208419  64.3042357  26.5430890
  31.1869724  64.2529450  25.3024984  38.5777995  67.3142940  24.2366757
  39.0438447  68.1470932  24.1627060  39.0285495  66.8487922  24.9412016
  28.5199830  75.3168811  32.9505002  29.2209290  75.9505294  33.1034396
  28.0494945  75.6583543  32.1900641  36.6454226  73.6586761  21.2352909
  36.9214070  73.5443356  22.1446783  35.7758725  73.2604246  21.1965082
  36.5494658  59.6823527  28.2757658  35.6357737  59.9127754  28.4439865
  36.9787759  59.7661971  29.1271691  36.3201116  67.8713419  30.7757553
  35.6672566  68.1189326  30.1210005  36.6981496  67.0577557  30.4420030
  33.2808290  77.9073112  24.8785723  33.4630684  77.0894768  25.3413475
  34.1041276  78.1240804  24.4410613  33.6150455  76.8341297  22.1400771
  34.1438222  76.3233752  21.5270933  33.8778675  76.5183827  23.0046304
  32.3688689  68.6133230  37.2623590  31.6929326  68.5127359  37.9325965
  33.1916323  68.4572444  37.7259587  24.1167548  74.8505167  29.8836105
  24.7020985  74.1048854  30.0164009  23.9192387  75.1609123  30.7672769
  26.9706203  77.8856414  24.8998547  26.3016579  78.3702542  24.4162587
  26.8319073  78.1325634  25.8141926  18.7085203  67.4210767  28.6040548
  18.7469302  66.8874357  29.3977666  18.2025496  66.8945972  27.9851525
  31.1111472  79.9200157  31.4981206  31.6629780  80.0831779  32.2630291
  31.4517665  80.5104595  30.8261230  26.0875965  62.2675307  32.1003090
  26.1517292  63.1290138  31.6880488  26.0243085  61.6549309  31.3675449
  25.5628238  64.3398440  35.7476125  26.1900277  63.9575517  36.3613649
  24.7056157  64.1212642  36.1131817  35.9622346  74.7461415  37.3529860
  36.5062250  75.3591373  36.8584815  35.3809191  75.3040993  37.8696873
  22.3393780  66.1474869  21.6794479  22.6347222  65.2385547  21.6261533
  21.4381816  66.1262608  21.3575482  34.2479859  77.8682133  28.4844888
  34.1230999  77.0671873  27.9755833  34.9058950  78.3628326  27.9958858
  25.8688027  64.2230865  27.6622028  25.1474613  64.8366833  27.5229501
  26.6581283  64.7588630  27.5838674  36.3114768  75.6691153  30.1124438
  35.3645103  75.5496504  30.0402765  36.6597541  74.7813651  30.1950699
  28.6714341  61.5585292  33.9362680  29.1948743  61.8047589  34.6988989
  28.4526674  62.3905327  33.5165817  24.0681622  63.8288967  21.8033805
  23.7394328  62.9486345  21.6208910  24.4220993  63.7736635  22.6910194
  33.3161201  75.4643869  26.3128790  33.1686163  74.5360577  26.4936360
  34.1414694  75.4863960  25.8285865  27.1823445  64.1161936  22.1709282
  27.5219518  64.6447858  21.4487891  27.6295566  64.4542342  22.9467849
  36.9195323  76.2872428  27.3993663  37.8441870  76.0815289  27.2618114
  36.7510626  76.0388829  28.3083004  29.8766886  62.4998987  31.6212350
  29.5363706  61.7006800  32.0233030  29.1705892  62.8000698  31.0489183
  30.5283358  59.5848299  30.0739673  31.3509427  59.1108778  29.9518564
  30.7721421  60.3638783  30.5738360  29.1691592  62.6136558  20.3702575
  29.8899955  62.9917811  19.8666292  28.5456897  63.3325435  20.4737553
  33.3122715  63.3181707  21.3060907  33.5286330  64.2006345  21.0049735
  32.8316782  62.9267920  20.5766549  28.0521937  66.2767420  27.8831652
  27.9066517  66.5907723  28.7755933  27.5747140  66.8952320  27.3302551
  29.9118320  63.2669968  27.9312541  29.8979888  62.3711061  27.5944839
  30.6290748  63.2740632  28.5650828  31.7644450  63.7007308  29.9765669
  31.5062228  64.6224379  29.9749999  31.2329491  63.3037743  30.6666133
  36.7090639  76.8058095  22.7555754  36.8827517  76.2404518  22.0029607
  37.2019530  77.6058990  22.5735244  22.5267599  68.8172765  30.8219313
  21.9821067  69.5932572  30.9539587  23.4046949  69.1643569  30.6638435
  29.3155215  62.1484348  23.2000112  29.4371127  61.2200995  23.3990999
  29.0257258  62.1623034  22.2878427  32.1846406  59.8339259  26.3366831
  32.2068103  59.8978592  25.3818811  32.6014465  58.9943767  26.5307338
  42.5630030  69.5694518  24.3746054  43.0061176  68.8201844  23.9765177
  41.6856540  69.5604655  23.9919786  37.6965811  76.1224860  19.8552653
  38.3916716  76.7431553  20.0739967  38.0388962  75.2720211  20.1305030
  23.3133621  67.9442661  33.7149470  22.5715357  68.0925296  34.3014100
  22.9926365  68.2050926  32.8516219  39.5957235  73.5724565  21.3839983
  40.1208559  73.9111838  20.6589303  39.5079587  72.6371581  21.2003118
  31.2577283  77.4858639  33.5129860  31.5664410  77.2407786  34.3852560
  32.0552765  77.6905277  33.0248730  31.2797895  79.6396549  25.7435237
  30.8402886  79.1472927  26.4368093  32.0306012  79.0969516  25.5027312
  23.7590234  75.8308090  25.7459865  24.5848254  75.5311861  25.3658508
  23.4084286  75.0615712  26.1949653  28.7271768  75.1834558  27.8157538
  28.1051777  74.5205263  27.5159766  29.3976634  75.2095690  27.1331186
  21.9598839  73.7494416  26.7048798  21.1230748  73.3216590  26.5232799
  21.9322485  73.9426859  27.6419589  28.7996295  63.6616346  37.4090044
  28.8484450  64.5378469  37.0267814  29.3418809  63.1193739  36.8361687
  39.2851141  74.2057469  36.6891181  38.4946684  74.1881608  36.1495681
  39.0484495  74.7445763  37.4440218  39.4049016  71.0549935  34.0023910
  39.4547021  70.8899943  34.9439433  39.2962939  70.1877194  33.6121791
  28.2885274  73.7338481  21.2915999  28.4373395  74.4173945  20.6382671
  29.0951718  73.7143571  21.8065454  36.6952778  67.0380863  35.3183217
  37.5962641  66.8987328  35.0267214  36.7700753  67.2035318  36.2581394
  31.0295583  64.4147718  34.1636403  30.1598893  64.7081284  33.8918991
  31.2655064  64.9988163  34.8843666  40.9067213  73.4746877  34.2465931
  40.6152021  73.8376857  35.0829392  40.2939344  72.7613885  34.0679263
  42.1062895  71.0399757  26.7668502  42.9409786  71.4789561  26.9306062
  42.2422024  70.5638410  25.9476747  39.1554401  68.5979492  32.7145989
  39.6308522  68.7907138  31.9064841  38.2319966  68.6538677  32.4689373
  26.0437907  69.7603659  22.2977068  25.7983949  68.8565989  22.4957278
  26.2133822  69.7620809  21.3556546  33.7334617  60.6327335  31.6801823
  34.2516561  61.3688362  31.3548312  33.3789750  60.9391328  32.5148582
  25.3133555  65.4932016  19.7963229  24.6202800  65.5676371  19.1403265
  25.0685307  64.7292360  20.3184746  33.9847211  57.0527618  27.2002720
  34.2648965  56.3850807  27.8263146  34.7697818  57.2456713  26.6877384
  31.7880680  76.2286612  18.7627746  31.2154647  76.8476799  18.3098218
  32.3613474  76.7785973  19.2967668  37.8556070  65.4745252  30.9474295
  38.8073493  65.5743349  30.9686519  37.6859520  64.6823520  31.4572379
  35.8770449  62.5600835  31.1333696  35.2820381  62.8405848  30.4380184
  35.5920146  63.0494736  31.9050437  35.0077940  76.5123762  19.8936328
  35.9408613  76.4469323  20.0969204  34.9201153  77.3480029  19.4350861
  37.6365956  75.8289632  16.8540276  37.5579588  75.4949496  17.7476034
  38.4575623  76.3211400  16.8531748  40.3344148  68.6951371  30.0616595
  40.3020468  67.7567372  30.2476278  40.9444771  68.7735408  29.3282419
  32.1727478  67.5647424  16.1043799  33.1186583  67.4353632  16.1732217
  31.7941723  66.8262086  16.5813227  40.4838636  65.4862415  30.1074878
  39.9677685  64.7020871  29.9204807  41.3678585  65.1581131  30.2721397
  38.1449363  59.2303430  26.0670690  37.9474184  58.9218519  26.9514022
  38.7549069  59.9565069  26.1968620  46.1520697  69.7567378  29.2022631
  46.8824086  69.4952666  29.7630335  45.5427643  69.0196100  29.2424699
  44.2335995  67.8975241  29.7997083  43.5069158  67.7631206  29.1913574
  43.8183281  68.2052069  30.6053801  32.0566171  71.6165170  37.5644456
  32.9769180  71.7943769  37.7584502  32.0215754  70.6721216  37.4124155
  30.3570396  65.4897401  16.0398684  29.4501851  65.1930513  16.1161397
  30.6346377  65.1927219  15.1732970  21.2748336  66.8103764  26.4897730
  20.9551120  65.9569072  26.1972104  20.7281764  67.0252342  27.2455698
  25.0528244  69.5266205  30.2067237  25.2714253  70.4583313  30.2255271
  25.4654017  69.1674179  30.9922041  31.9732461  60.0334290  22.1942925
  31.1633190  59.6881375  22.5698171  32.6616878  59.7241834  22.7830537
  33.9023010  59.1112337  23.8167222  34.4554048  59.5307791  24.4757245
  34.1393096  58.1848085  23.8590178  29.9256109  65.0999411  39.5969986
  29.8252836  66.0493768  39.5282077  29.7077651  64.7717650  38.7246056
  29.1269180  62.3484336  16.1810663  29.9888344  62.6739234  16.4406480
  29.3119524  61.5615832  15.6683729  21.1436596  70.4306676  28.4590852
  20.4500067  70.0160628  27.9460806  21.8909587  70.4727212  27.8624271
  37.2801817  61.2212862  23.3245886  36.7000486  61.8797666  22.9423938
  37.0137749  60.3990207  22.9133304  35.7305383  60.6217920  25.5267206
  36.2305161  60.7334455  24.7181525  36.3740991  60.3178973  26.1668015
  29.7887379  68.5296550  38.4135047  29.3054461  69.3296910  38.6198936
  29.8748318  68.5404495  37.4602491  23.0573338  70.3624929  26.3356867
  23.0344027  70.4612617  25.3838750  23.3673975  71.2090080  26.6574033
  25.7160716  72.4201084  30.4503481  26.6703970  72.3885027  30.3833413
  25.5173240  71.9591708  31.2653707  26.3060099  70.9902200  33.0174279
  27.1252987  71.4846279  33.0409116  26.5796906  70.0734169  32.9891846
  36.0626695  63.3812953  22.3802234  35.1752550  63.6662603  22.1622429
  36.4780684  63.2206716  21.5329511  39.4141231  63.4059474  26.0956574
  40.1901621  63.8955926  26.3681190  38.6889365  63.8317528  26.5528443
  41.8513789  64.1187093  27.1530514  42.4458280  63.8782829  26.4423822
  41.9240373  63.3994224  27.7804050  24.0710945  77.9620704  27.4673679
  23.9365413  77.2021105  26.9011677  23.6543007  78.6861604  27.0002468
  35.2069908  73.1457627  16.4750254  35.9105758  73.3507630  17.0907910
  34.4832557  73.7134389  16.7399338  36.0367718  68.8967489  22.5952524
  35.9802920  69.3536040  21.7560157  36.5896061  68.1358173  22.4175367
  39.8472524  64.6857221  23.4202644  39.5909459  64.2853856  24.2510852
  39.2225392  65.4001014  23.2952783  44.1584862  67.4253294  25.9273935
  43.5984420  67.4946483  26.7005497  43.5528366  67.2494278  25.2073432
  27.2280071  78.8590021  27.6792122  27.1112455  79.8035453  27.5770812
  26.4072517  78.5563582  28.0677921  37.1156606  73.5840157  18.5248714
  37.9502210  73.1521355  18.3426189  36.9540948  73.4122170  19.4525609
  36.7702498  70.0872270  19.8905054  36.7151302  69.9216541  18.9493498
  36.1448553  70.7948303  20.0467243  21.5595013  65.3240334  33.7166476
  22.2053876  64.8139288  34.2053701  21.3512164  66.0609016  34.2909901
  34.0848405  72.3921182  39.2158616  34.9539565  72.5661834  38.8545251
  33.6055156  73.2115599  39.0934346  30.0798623  59.5880379  19.4690372
  30.0677293  60.5322219  19.6258643  30.9722045  59.4050524  19.1749833
  28.2534585  79.5118283  30.8948050  29.1561832  79.5441893  31.2114545
  28.0271955  78.5818734  30.9094386  30.0088187  78.2649269  27.5558129
  29.0583818  78.2651131  27.4422501  30.3120673  77.5182004  27.0394163
  33.8950743  56.1823156  23.7236309  33.1283138  55.6281642  23.8692991
  34.3061448  56.2545024  24.5850460  25.8992504  62.4707951  37.8141490
  26.7623965  62.1144756  38.0244815  25.3257914  62.1321846  38.5016894
  45.7440881  84.1009808  28.6203891  46.3819291  83.9816555  27.9167231
  45.6261724  85.0490652  28.6791843  42.5530587  84.0537236  28.5565416
  42.2149098  83.9378301  27.6685951  43.4220355  83.6528401  28.5366422
  38.4117403  85.9072712  24.5462307  37.8482268  85.8162649  23.7778595
  38.2969798  85.0872617  25.0264799  43.0350370  85.2072088  34.5151621
  43.0239011  84.8124886  33.6432125  43.1971009  84.4738160  35.1085393
  35.9581835  87.4023904  27.3846527  36.7503127  87.0614728  26.9692827
  36.1978485  87.5118879  28.3048681  43.9916961  89.5743680  19.8576772
  43.3404941  90.1597760  19.4710785  44.7861324  90.1049875  19.9171809
  37.9172589  86.6632817  20.2563906  38.6903465  86.1161804  20.1176782
  38.2697987  87.5277066  20.4678367  39.7557631  87.9909199  33.4630805
  39.4647497  88.8954830  33.3477472  40.3914615  88.0325727  34.1774875
  40.6813838  85.3686048  30.0532165  41.2777410  85.1442070  29.3389128
  40.7388809  84.6270793  30.6557613  40.2538866  82.8225483  17.8882356
  40.5064387  82.3007004  17.1265819  39.3163425  82.6591629  17.9909040
  45.2982149  81.8261262  25.6957099  46.0845238  81.4080685  25.3447516
  45.5620853  82.7307354  25.8638748  45.4692227  87.2634112  20.3945756
  44.8338059  87.3368738  21.1066661  45.1389633  87.8527711  19.7164835
  50.6990576  81.7636495  26.5990078  51.4315748  81.1935712  26.8327907
  49.9429932  81.3758095  27.0396583  39.9735155  84.7253589  20.0906731
  39.8571413  84.0498493  20.7587815  40.0837415  84.2385963  19.2738884
  42.3166696  84.1863736  23.7953420  41.9524903  83.6594357  24.5066342
  43.1733812  83.7962205  23.6219906  48.2215997  75.4758069  31.0584686
  47.8899321  76.3453480  30.8345901  47.6261610  75.1594353  31.7378717
  41.9572183  79.2153636  18.7914769  42.1246585  80.0833872  19.1585240
  41.7669352  79.3780918  17.8676058  44.7147516  87.6770615  30.4580599
  44.4148239  88.5795654  30.3496406  44.3698576  87.4102798  31.3101752
  38.1659998  84.1284412  26.4917303  37.2410494  83.9960626  26.6994995
  38.4144411  84.9078631  26.9887246  48.1144660  80.1953155  28.1378036
  47.2061537  80.1268563  27.8436797  48.0632256  80.6725100  28.9659862
  41.9361404  81.6711293  19.7761435  41.8161029  82.1168344  20.6146916
  41.2413992  82.0196611  19.2174974  35.5268809  83.7717685  27.3261092
  35.6561190  84.0252164  28.2400504  34.8466260  84.3645393  27.0065748
  39.6968296  94.4414935  23.4251567  39.6192326  95.3922760  23.5040047
  39.0929940  94.0960808  24.0826493  42.1885526  81.6142801  36.0812934
  41.4118860  82.1736721  36.0715798  42.8276089  82.0999584  36.6027804
  49.9806306  78.3969593  29.9155910  49.3380687  78.6902127  29.2695705
  49.4761235  78.2822514  30.7209107  47.6346470  82.1432767  20.6041770
  48.5464326  82.3760153  20.4289467  47.1256117  82.7269811  20.0416848
  40.4431898  84.4228254  35.6430901  41.1846582  84.9613298  35.3665724
  39.7368884  85.0494543  35.8002452  45.9187238  86.5657394  34.2403062
  46.3270594  86.1239805  33.4957694  45.1964499  85.9910022  34.4937255
  42.2718308  81.5030001  31.6136619  43.1179503  81.9269415  31.7571268
  42.2116945  80.8463626  32.3075182  46.2416052  87.1258585  27.9955351
  45.6124915  87.2904299  27.2931419  45.8541714  87.5400195  28.7666315
  50.1205284  88.0613023  25.3499715  49.4356322  88.4411924  24.7996748
  50.2049134  88.6708350  26.0831662  45.4217753  79.1634370  33.2717793
  45.1778685  79.9176430  32.7352068  45.6977684  79.5419717  34.1065040
  47.3756216  85.7072982  31.9495058  47.5873111  86.3504742  31.2729439
  47.3285964  84.8735299  31.4816988  44.9782445  78.3190803  28.8531630
  44.1166924  78.6172056  29.1448368  45.0044879  78.5361202  27.9212663
  41.7944014  86.8632993  25.2605436  42.2582360  87.1420696  24.4710059
  41.5300812  85.9616438  25.0778527  38.6868095  86.4104475  28.1985199
  39.2569452  86.8391743  27.5602684  39.2776207  86.1287059  28.8969385
  40.7312900  82.9856146  22.0695001  41.4336944  83.4377189  22.5368928
  40.3993529  82.3439964  22.6974894  39.1793262  81.5767902  36.4446211
  38.5491922  82.2584183  36.6781607  39.0729350  81.4650984  35.4999349
  34.4738234  81.2439698  27.3712135  33.6837288  81.4997227  26.8952245
  34.9649482  82.0588036  27.4764175  48.4902044  88.5844937  30.1217416
  49.3119488  88.1825125  29.8400097  48.4864447  88.4813172  31.0733531
  36.4252980  81.6084277  24.3295611  35.6284143  81.7202972  24.8479107
  36.1978572  81.9470930  23.4636502  42.2558647  88.1328981  32.2778126
  42.3203080  88.5949388  33.1136298  41.5469571  87.5026346  32.4060436
  32.7575937  81.4970189  29.8027126  33.0083976  82.3817199  30.0684702
  33.2935486  81.3174790  29.0302217  56.5808037  84.9283686  26.4702387
  55.8271745  84.3591084  26.3146391  56.7155578  84.8946350  27.4173022
  41.9706665  89.7997088  22.1457106  41.8352340  90.6448624  22.5741954
  42.5116477  90.0016366  21.3823040  38.4574005  75.8788668  38.8071462
  38.0640950  75.3254867  39.4819106  39.2740145  76.1899247  39.1977979
  35.4236062  87.3172526  22.7185032  35.9360583  88.1115776  22.8690596
  36.0758775  86.6198817  22.6518633  37.2330947  90.4338282  24.8007785
  37.4097575  91.3556247  24.6128769  38.0287781  90.1196702  25.2302164
  41.3741966  77.2946547  36.3991718  42.1151679  77.8953700  36.3196181
  41.6059888  76.5524185  35.8409761  36.5183304  82.4802914  34.6769948
  36.4036819  81.5788172  34.9777047  35.6627821  82.7266611  34.3254764
  43.5975141  90.4220655  36.2757449  43.1538995  89.6357033  35.9578353
  44.2592355  90.6099805  35.6101339  38.3562262  91.9516456  30.8018127
  38.9069688  91.8233520  30.0295121  37.5173738  92.2511345  30.4513020
  45.6956379  90.7023455  34.3038850  45.6774855  91.5232336  33.8119119
  46.6176299  90.5777530  34.5288991  42.1529433  88.2167584  35.1462358
  42.6857770  87.4555872  34.9161666  41.6243515  87.9241236  35.8886513
  45.3199128  73.3227650  30.6756000  44.9763398  74.2129292  30.5995110
  45.6878091  73.1329308  29.8125585  33.3884979  85.6461181  23.4944602
  34.2260201  86.0558189  23.2778310  33.5663247  84.7060623  23.4644796
  45.2849411  83.3136261  19.1828435  44.7696035  84.0840866  19.4216822
  45.0126720  82.6401397  19.8061496  42.8696522  78.1585962  24.2413673
  42.0138119  77.7692812  24.0619312  43.2823474  78.2377923  23.3813459
  44.3995669  75.6932305  28.6405233  43.8960464  75.6562440  27.8273038
  44.6926276  76.6025048  28.7001890  40.6438555  75.7771035  27.6471415
  41.5091552  75.5813844  27.2877304  40.7116064  75.5481387  28.5740772
  50.2583685  86.0668616  21.1181608  49.4813128  85.7279775  20.6736771
  50.9375166  86.0721239  20.4436574  45.0735714  81.1863353  21.0088216
  44.7685850  81.5009502  21.8598359  46.0266156  81.2644773  21.0515549
  43.5182146  87.3453577  22.6581170  42.9903508  86.6106336  22.3454408
  43.0169649  88.1228253  22.4121138  48.4974992  85.5402597  27.7748216
  47.8398667  86.2301858  27.8628345  49.3015391  85.9299029  28.1182203
  38.2500874  78.0073243  25.0187782  38.8244626  77.7848424  24.2860975
  38.8371856  78.0761937  25.7716383  47.3080451  83.8946970  25.8252158
  47.8212333  84.5276962  26.3273868  47.9581675  83.2948165  25.4595518
  38.5770461  80.0377704  19.0383667  37.7407773  80.3752390  19.3592942
  38.4375231  79.9026684  18.1010804  40.5523542  74.8814492  23.7462851
  39.8987954  74.5663509  23.1219466  40.5104016  74.2590232  24.4722674
  41.6634746  85.1633787  15.6616143  40.7561808  84.9323040  15.8607292
  42.1605778  84.3671406  15.8490125  44.5702825  93.8731294  18.5812829
  43.8964524  94.1762991  19.1897787  44.9568647  94.6760374  18.2318286
  43.7861282  81.3696425  28.0710499  42.8683843  81.5911372  27.9132187
  44.2021426  81.4442736  27.2122206  44.5696330  82.7687841  23.2013179
  45.3168149  83.2809238  22.8920301  44.8387919  82.4471894  24.0617573
  42.8422980  85.2646382  20.1840133  41.9334199  84.9805415  20.2812603
  42.8718064  85.6845460  19.3243440  48.0742247  88.8752971  23.9531301
  47.6204574  88.0343881  24.0096491  47.4436214  89.5114370  24.2906081
  47.0175167  79.8044957  25.1831968  46.2797924  79.2922343  25.5142211
  47.2701940  79.3645339  24.3715245  46.5175186  90.7129468  24.8881119
  46.8098161  91.2734525  24.1693485  47.0273807  91.0058029  25.6434278
  47.1186794  72.5821209  25.7773738  47.4245671  71.7218573  25.4899653
  47.8439399  73.1738829  25.5772731  33.4111150  82.9851896  24.1655335
  33.2135550  82.3921257  23.4406402  32.8557814  82.6804106  24.8831274
  41.3907874  82.8775002  26.2849929  41.4456484  81.9248839  26.2092405
  40.5799076  83.0334441  26.7691227  42.5399068  86.8055125  17.5228212
  42.1018498  86.0890984  17.0633849  43.2809508  87.0331240  16.9613303
  39.3300234  81.4952062  24.0440307  38.5168099  81.7946233  24.4505500
  39.8259228  81.1007751  24.7614790  41.4808812  91.4909819  25.9774572
  41.4384990  91.7170665  25.0483104  42.3971511  91.2573194  26.1260373
  44.9274445  81.9593887  32.8755201  45.2823833  82.1865360  33.7349667
  45.5746577  82.2912263  32.2532457  50.6572182  85.0812322  23.5804530
  50.5190081  85.2713918  22.6525720  50.3008401  85.8431705  24.0372582
  38.8214309  79.0670418  29.6601542  39.4613688  78.9259177  28.9624506
  37.9891839  78.7804931  29.2840144  50.6841562  87.1488849  28.5915802
  51.1178069  87.0564139  29.4398856  51.3973143  87.1246350  27.9535818
  39.5974612  88.3672848  25.7736535  40.3915211  87.8723168  25.5719110
  38.8866305  87.8390711  25.4104240  44.4169457  90.7490944  30.1248903
  44.4706479  91.3181880  30.8926618  43.5484238  90.9192829  29.7602940
  35.9057376  82.5115930  21.8496288  34.9754964  82.4500385  22.0666250
  36.0014848  81.9891882  21.0532929  35.8242925  79.0370743  24.4374529
  36.0849742  79.9516076  24.3283690  36.6460097  78.5695185  24.5871142
  37.2967850  80.4508500  31.6073354  37.9690904  80.2425862  30.9586003
  36.4697637  80.2530586  31.1678586  51.5457112  87.1912550  31.1248687
  51.7393002  88.0958361  31.3707962  51.4457730  86.7319969  31.9587272
  43.1993422  77.0770441  33.6239015  42.5521337  77.7760390  33.5303491
  43.9694438  77.5106585  33.9915263  46.6072220  87.3419293  36.6989568
  46.4557727  87.1129845  35.7819652  46.5976900  88.2989894  36.7120913
  43.3757557  84.9151206  31.6835834  44.3049617  85.0662365  31.5104802
  42.9548587  85.0035226  30.8284481  42.1745888  88.9401870  29.4534372
  42.0356974  88.5720654  30.3260310  41.3860485  89.4549509  29.2818330
  42.7694040  94.0410966  20.7959909  42.9445796  93.5699010  21.6105531
  42.0826828  94.6676733  21.0241169  43.7251104  88.3183473  26.8423210
  43.3900936  88.2784243  27.7380860  43.2255049  87.6528189  26.3693620
  37.6995348  83.7251103  32.3675791  37.5615145  82.9931342  32.9687330
  38.6100271  83.6360003  32.0859979  46.6610295  85.6639507  17.1160269
  46.0439466  84.9386335  17.0193322  46.1926784  86.4248867  16.7727344
  40.3277648  83.4371062  31.8559471  41.0377267  82.7964254  31.8146089
  40.2846956  83.6883957  32.7785651  48.3164427  90.3738415  34.7766050
  48.2576973  89.6897636  34.1096633  48.7183945  91.1157405  34.3246676
  39.0406582  80.4236280  33.6755110  38.5043939  79.9727018  34.3276706
  38.4523291  80.5582189  32.9325574  37.3355126  97.1900329  27.5699769
  37.5751724  97.8218853  28.2478787  36.4924322  96.8388369  27.8565128
  38.4508841  79.8824931  16.2381574  37.5738307  79.7613732  15.8743820
  38.9266594  79.0911010  15.9860462  48.3181834  88.3377999  33.0080029
  47.4308613  88.0003921  33.1306428  48.8880385  87.6061031  33.2448795
  29.9710981  84.6702091  26.3323081  30.6582021  84.3563821  25.7444096
  29.8159110  85.5743456  26.0590332  34.7745703  79.5592288  30.7608105
  34.6903892  78.9517957  30.0258514  33.9528410  80.0501306  30.7617601
  41.8482988  92.9979452  29.9741273  41.7753159  93.8034423  30.4860577
  41.4060381  93.1971417  29.1489294  41.6372767  92.2351222  23.4844094
  40.8540289  92.7772902  23.5782319  42.3365512  92.7525201  23.8838335
  44.9469417  78.0445851  26.1278300  45.4438117  77.2915813  25.8079370
  44.1756399  78.0810168  25.5621509  52.7999175  83.7486217  27.7696591
  52.7889051  84.6310932  27.3990524  51.9316554  83.3957768  27.5751128
  44.3081671  92.8966286  32.1299431  45.0209643  93.5313751  32.0575333
  43.8171700  92.9930152  31.3139433  46.0299198  86.8017538  23.7016723
  45.0955477  86.9219001  23.5321427  46.2075866  85.8990005  23.4376733
  41.5304386  80.1863234  25.8549984  41.1602174  79.6334275  26.5430890
  42.0263478  79.5821368  25.3024984  49.4171749  82.6434858  24.2366757
  49.8832202  83.4762849  24.1627060  49.8679250  82.1779839  24.9412016
  39.3593585  90.6460729  32.9505002  40.0603044  91.2797212  33.1034396
  38.8888700  90.9875461  32.1900641  47.4847980  88.9878679  21.2352909
  47.7607824  88.8735274  22.1446783  46.6152479  88.5896164  21.1965082
  47.3888412  75.0115445  28.2757658  46.4751492  75.2419671  28.4439865
  47.8181514  75.0953889  29.1271691  47.1594871  83.2005337  30.7757553
  46.5066321  83.4481244  30.1210005  47.5375250  82.3869475  30.4420030
  44.1202044  93.2365030  24.8785723  44.3024439  92.4186686  25.3413475
  44.9435030  93.4532722  24.4410613  44.4544210  92.1633215  22.1400771
  44.9831976  91.6525670  21.5270933  44.7172430  91.8475745  23.0046304
  43.2082444  83.9425148  37.2623590  42.5323081  83.8419277  37.9325965
  44.0310077  83.7864361  37.7259587  34.9561303  90.1797084  29.8836105
  35.5414739  89.4340772  30.0164009  34.7586141  90.4901041  30.7672769
  37.8099958  93.2148332  24.8998547  37.1410333  93.6994459  24.4162587
  37.6712828  93.4617552  25.8141926  29.5478957  82.7502684  28.6040548
  29.5863057  82.2166275  29.3977666  29.0419250  82.2237890  27.9851525
  41.9505226  95.2492075  31.4981206  42.5023535  95.4123697  32.2630291
  42.2911420  95.8396513  30.8261230  36.9269720  77.5967225  32.1003090
  36.9911046  78.4582056  31.6880488  36.8636840  76.9841227  31.3675449
  36.4021992  79.6690357  35.7476125  37.0294031  79.2867435  36.3613649
  35.5449911  79.4504559  36.1131817  46.8016101  90.0753333  37.3529860
  47.3456005  90.6883291  36.8584815  46.2202946  90.6332911  37.8696873
  33.1787535  81.4766787  21.6794479  33.4740976  80.5677465  21.6261533
  32.2775571  81.4554526  21.3575482  45.0873614  93.1974051  28.4844888
  44.9624753  92.3963790  27.9755833  45.7452705  93.6920244  27.9958858
  36.7081782  79.5522783  27.6622028  35.9868368  80.1658751  27.5229501
  37.4975038  80.0880548  27.5838674  47.1508522  90.9983071  30.1124438
  46.2038858  90.8788422  30.0402765  47.4991295  90.1105569  30.1950699
  39.5108096  76.8877210  33.9362680  40.0342497  77.1339506  34.6988989
  39.2920429  77.7197244  33.5165817  34.9075377  79.1580884  21.8033805
  34.5788083  78.2778263  21.6208910  35.2614747  79.1028553  22.6910194
  44.1554955  90.7935787  26.3128790  44.0079918  89.8652494  26.4936360
  44.9808449  90.8155878  25.8285865  38.0217200  79.4453854  22.1709282
  38.3613272  79.9739775  21.4487891  38.4689320  79.7834260  22.9467849
  47.7589077  91.6164346  27.3993663  48.6835625  91.4107207  27.2618114
  47.5904381  91.3680747  28.3083004  40.7160641  77.8290905  31.6212350
  40.3757461  77.0298718  32.0233030  40.0099647  78.1292616  31.0489183
  41.3677112  74.9140217  30.0739673  42.1903182  74.4400695  29.9518564
  41.6115176  75.6930701  30.5738360  40.0085347  77.9428476  20.3702575
  40.7293709  78.3209728  19.8666292  39.3850651  78.6617352  20.4737553
  44.1516470  78.6473625  21.3060907  44.3680084  79.5298262  21.0049735
  43.6710537  78.2559838  20.5766549  38.8915691  81.6059338  27.8831652
  38.7460272  81.9199641  28.7755933  38.4140895  82.2244238  27.3302551
  40.7512074  78.5961886  27.9312541  40.7373643  77.7002979  27.5944839
  41.4684502  78.6032550  28.5650828  42.6038205  79.0299226  29.9765669
  42.3455983  79.9516297  29.9749999  42.0723245  78.6329661  30.6666133
  47.5484393  92.1350013  22.7555754  47.7221271  91.5696436  22.0029607
  48.0413285  92.9350908  22.5735244  33.3661353  84.1464682  30.8219313
  32.8214821  84.9224490  30.9539587  34.2440703  84.4935487  30.6638435
  40.1548970  77.4776266  23.2000112  40.2764881  76.5492912  23.3990999
  39.8651012  77.4914952  22.2878427  43.0240160  75.1631177  26.3366831
  43.0461857  75.2270510  25.3818811  43.4408219  74.3235685  26.5307338
  53.4023785  84.8986436  24.3746054  53.8454931  84.1493761  23.9765177
  52.5250295  84.8896572  23.9919786  48.5359566  91.4516778  19.8552653
  49.2310471  92.0723470  20.0739967  48.8782716  90.6012129  20.1305030
  34.1527375  83.2734578  33.7149470  33.4109111  83.4217214  34.3014100
  33.8320119  83.5342844  32.8516219  50.4350989  88.9016483  21.3839983
  50.9602313  89.2403756  20.6589303  50.3473342  87.9663498  21.2003118
  42.0971038  92.8150557  33.5129860  42.4058164  92.5699703  34.3852560
  42.8946520  93.0197195  33.0248730  42.1191650  94.9688466  25.7435237
  41.6796640  94.4764845  26.4368093  42.8699767  94.4261434  25.5027312
  34.5983989  91.1600007  25.7459865  35.4242009  90.8603779  25.3658508
  34.2478041  90.3907630  26.1949653  39.5665522  90.5126475  27.8157538
  38.9445531  89.8497180  27.5159766  40.2370389  90.5387607  27.1331186
  32.7992594  89.0786334  26.7048798  31.9624502  88.6508508  26.5232799
  32.7716239  89.2718777  27.6419589  39.6390049  78.9908263  37.4090044
  39.6878205  79.8670386  37.0267814  40.1812564  78.4485656  36.8361687
  50.1244895  89.5349387  36.6891181  49.3340439  89.5173526  36.1495681
  49.8878250  90.0737680  37.4440218  50.2442770  86.3841853  34.0023910
  50.2940775  86.2191861  34.9439433  50.1356694  85.5169112  33.6121791
  39.1279029  89.0630399  21.2915999  39.2767149  89.7465863  20.6382671
  39.9345472  89.0435489  21.8065454  47.5346533  82.3672781  35.3183217
  48.4356395  82.2279246  35.0267214  47.6094507  82.5327236  36.2581394
  41.8689338  79.7439636  34.1636403  40.9992647  80.0373202  33.8918991
  42.1048818  80.3280081  34.8843666  51.7460967  88.8038795  34.2465931
  51.4545775  89.1668775  35.0829392  51.1333098  88.0905803  34.0679263
  52.9456649  86.3691674  26.7668502  53.7803541  86.8081478  26.9306062
  53.0815778  85.8930328  25.9476747  49.9948155  83.9271409  32.7145989
  50.4702277  84.1199056  31.9064841  49.0713721  83.9830595  32.4689373
  36.8831662  85.0895576  22.2977068  36.6377704  84.1857906  22.4957278
  37.0527576  85.0912727  21.3556546  44.5728372  75.9619253  31.6801823
  45.0910316  76.6980280  31.3548312  44.2183505  76.2683246  32.5148582
  36.1527309  80.8223934  19.7963229  35.4596554  80.8968289  19.1403265
  35.9079061  80.0584278  20.3184746  44.8240966  72.3819535  27.2002720
  45.1042720  71.7142724  27.8263146  45.6091573  72.5748631  26.6877384
  42.6274434  91.5578529  18.7627746  42.0548402  92.1768716  18.3098218
  43.2007228  92.1077891  19.2967668  48.6949824  80.8037169  30.9474295
  49.6467247  80.9035267  30.9686519  48.5253275  80.0115438  31.4572379
  46.7164204  77.8892753  31.1333696  46.1214136  78.1697765  30.4380184
  46.4313900  78.3786653  31.9050437  45.8471694  91.8415679  19.8936328
  46.7802367  91.7761241  20.0969204  45.7594907  92.6771946  19.4350861
  48.4759711  91.1581550  16.8540276  48.3973342  90.8241413  17.7476034
  49.2969378  91.6503318  16.8531748  51.1737902  84.0243289  30.0616595
  51.1414222  83.0859290  30.2476278  51.7838526  84.1027326  29.3282419
  43.0121233  82.8939342  16.1043799  43.9580338  82.7645550  16.1732217
  42.6335478  82.1554004  16.5813227  51.3232391  80.8154332  30.1074878
  50.8071439  80.0312789  29.9204807  52.2072339  80.4873049  30.2721397
  48.9843117  74.5595348  26.0670690  48.7867939  74.2510436  26.9514022
  49.5942823  75.2856987  26.1968620  56.9914452  85.0859296  29.2022631
  57.7217840  84.8244584  29.7630335  56.3821397  84.3488018  29.2424699
  55.0729749  83.2267158  29.7997083  54.3462913  83.0923123  29.1913574
  54.6577036  83.5343987  30.6053801  42.8959925  86.9457088  37.5644456
  43.8162935  87.1235687  37.7584502  42.8609509  86.0013133  37.4124155
  41.1964150  80.8189318  16.0398684  40.2895605  80.5222431  16.1161397
  41.4740131  80.5219136  15.1732970  32.1142090  82.1395682  26.4897730
  31.7944875  81.2860990  26.1972104  31.5675519  82.3544260  27.2455698
  35.8921998  84.8558123  30.2067237  36.1108008  85.7875231  30.2255271
  36.3047772  84.4966097  30.9922041  42.8126216  75.3626208  22.1942925
  42.0026944  75.0173293  22.5698171  43.5010633  75.0533752  22.7830537
  44.7416764  74.4404255  23.8167222  45.2947803  74.8599708  24.4757245
  44.9786850  73.5140003  23.8590178  40.7649863  80.4291329  39.5969986
  40.6646590  81.3785685  39.5282077  40.5471405  80.1009567  38.7246056
  39.9662935  77.6776254  16.1810663  40.8282099  78.0031152  16.4406480
  40.1513279  76.8907749  15.6683729  31.9830350  85.7598593  28.4590852
  31.2893822  85.3452546  27.9460806  32.7303341  85.8019130  27.8624271
  48.1195571  76.5504780  23.3245886  47.5394240  77.2089584  22.9423938
  47.8531504  75.7282125  22.9133304  46.5699138  75.9509838  25.5267206
  47.0698916  76.0626372  24.7181525  47.2134745  75.6470891  26.1668015
  40.6281133  83.8588467  38.4135047  40.1448215  84.6588827  38.6198936
  40.7142072  83.8696412  37.4602491  33.8967093  85.6916847  26.3356867
  33.8737781  85.7904534  25.3838750  34.2067729  86.5381998  26.6574033
  36.5554471  87.7493002  30.4503481  37.5097724  87.7176944  30.3833413
  36.3566994  87.2883626  31.2653707  37.1453853  86.3194118  33.0174279
  37.9646742  86.8138197  33.0409116  37.4190661  85.4026086  32.9891846
  46.9020449  78.7104870  22.3802234  46.0146304  78.9954521  22.1622429
  47.3174438  78.5498634  21.5329511  50.2534985  78.7351391  26.0956574
  51.0295375  79.2247844  26.3681190  49.5283120  79.1609446  26.5528443
  52.6907544  79.4479011  27.1530514  53.2852035  79.2074747  26.4423822
  52.7634128  78.7286141  27.7804050  34.9104700  93.2912622  27.4673679
  34.7759168  92.5313022  26.9011677  34.4936762  94.0153521  27.0002468
  46.0463663  88.4749545  16.4750254  46.7499513  88.6799548  17.0907910
  45.3226311  89.0426307  16.7399338  46.8761473  84.2259406  22.5952524
  46.8196674  84.6827958  21.7560157  47.4289815  83.4650091  22.4175367
  50.6866279  80.0149138  23.4202644  50.4303213  79.6145774  24.2510852
  50.0619147  80.7292932  23.2952783  54.9978617  82.7545211  25.9273935
  54.4378175  82.8238401  26.7005497  54.3922120  82.5786196  25.2073432
  38.0673826  94.1881939  27.6792122  37.9506210  95.1327371  27.5770812
  37.2466272  93.8855500  28.0677921  47.9550360  88.9132074  18.5248714
  48.7895964  88.4813273  18.3426189  47.7934703  88.7414088  19.4525609
  47.6096252  85.4164188  19.8905054  47.5545056  85.2508459  18.9493498
  46.9842308  86.1240221  20.0467243  32.3988767  80.6532252  33.7166476
  33.0447631  80.1431206  34.2053701  32.1905918  81.3900934  34.2909901
  44.9242159  87.7213099  39.2158616  45.7933319  87.8953752  38.8545251
  44.4448911  88.5407516  39.0934346  40.9192378  74.9172297  19.4690372
  40.9071048  75.8614137  19.6258643  41.8115800  74.7342442  19.1749833
  39.0928340  94.8410200  30.8948050  39.9955586  94.8733811  31.2114545
  38.8665710  93.9110651  30.9094386  40.8481942  93.5941187  27.5558129
  39.8977573  93.5943049  27.4422501  41.1514428  92.8473922  27.0394163
  44.7344497  71.5115073  23.7236309  43.9676893  70.9573560  23.8692991
  45.1455202  71.5836942  24.5850460  36.7386258  77.7999869  37.8141490
  37.6017720  77.4436674  38.0244815  36.1651669  77.4613764  38.5016894
  56.5834635  99.4301725  28.6203891  57.2213045  99.3108473  27.9167231
  56.4655478 100.3782569  28.6791843  53.3924341  99.3829154  28.5565416
  53.0542853  99.2670218  27.6685951  54.2614110  98.9820319  28.5366422
  49.2511157 101.2364630  24.5462307  48.6876022 101.1454567  23.7778595
  49.1363552 100.4164534  25.0264799  53.8744124 100.5364005  34.5151621
  53.8632765 100.1416804  33.6432125  54.0364764  99.8030078  35.1085393
  46.7975589 102.7315822  27.3846527  47.5896881 102.3906646  26.9692827
  47.0372239 102.8410797  28.3048681  54.8310716 104.9035598  19.8576772
  54.1798696 105.4889678  19.4710785  55.6255079 105.4341793  19.9171809
  48.7566343 101.9924735  20.2563906  49.5297219 101.4453722  20.1176782
  49.1091742 102.8568984  20.4678367  50.5951386 103.3201117  33.4630805
  50.3041252 104.2246748  33.3477472  51.2308370 103.3617645  34.1774875
  51.5207592 100.6977966  30.0532165  52.1171165 100.4733988  29.3389128
  51.5782564  99.9562711  30.6557613  51.0932621  98.1517401  17.8882356
  51.3458142  97.6298922  17.1265819  50.1557180  97.9883546  17.9909040
  56.1375904  97.1553179  25.6957099  56.9238993  96.7372602  25.3447516
  56.4014608  98.0599271  25.8638748  56.3085981 102.5926030  20.3945756
  55.6731814 102.6660656  21.1066661  55.9783387 103.1819628  19.7164835
  61.5384331  97.0928412  26.5990078  62.2709503  96.5227629  26.8327907
  60.7823686  96.7050013  27.0396583  50.8128910 100.0545507  20.0906731
  50.6965168  99.3790410  20.7587815  50.9231169  99.5677881  19.2738884
  53.1560451  99.5155654  23.7953420  52.7918658  98.9886275  24.5066342
  54.0127566  99.1254123  23.6219906  59.0609751  90.8049987  31.0584686
  58.7293076  91.6745398  30.8345901  58.4655365  90.4886271  31.7378717
  52.7965937  94.5445554  18.7914769  52.9640340  95.4125790  19.1585240
  52.6063107  94.7072835  17.8676058  55.5541271 103.0062533  30.4580599
  55.2541994 103.9087571  30.3496406  55.2092330 102.7394716  31.3101752
  49.0053752  99.4576329  26.4917303  48.0804249  99.3252543  26.6994995
  49.2538165 100.2370549  26.9887246  58.9538414  95.5245073  28.1378036
  58.0455292  95.4560481  27.8436797  58.9026010  96.0017018  28.9659862
  52.7755158  97.0003211  19.7761435  52.6554784  97.4460262  20.6146916
  52.0807747  97.3488529  19.2174974  46.3662563  99.1009603  27.3261092
  46.4954944  99.3544082  28.2400504  45.6860014  99.6937311  27.0065748
  53.0279280  96.9434718  36.0812934  52.2512614  97.5028638  36.0715798
  53.6669843  97.4291501  36.6027804  60.8200061  93.7261511  29.9155910
  60.1774441  94.0194044  29.2695705  60.3154989  93.6114431  30.7209107
  58.4740225  97.4724684  20.6041770  59.3858081  97.7052071  20.4289467
  57.9649872  98.0561729  20.0416848  51.2825653  99.7520172  35.6430901
  52.0240337 100.2905216  35.3665724  50.5762638 100.3786460  35.8002452
  56.7580992 101.8949312  34.2403062  57.1664348 101.4531723  33.4957694
  56.0358254 101.3201940  34.4937255  53.1112062  96.8321919  31.6136619
  53.9573257  97.2561332  31.7571268  53.0510700  96.1755543  32.3075182
  57.0809807 102.4550503  27.9955351  56.4518669 102.6196217  27.2931419
  56.6935469 102.8692112  28.7666315  60.9599039 103.3904941  25.3499715
  60.2750077 103.7703842  24.7996748  61.0442888 104.0000267  26.0831662
  56.2611508  94.4926287  33.2717793  56.0172439  95.2468348  32.7352068
  56.5371438  94.8711635  34.1065040  58.2149970 101.0364900  31.9495058
  58.4266866 101.6796660  31.2729439  58.1679719 100.2027216  31.4816988
  55.8176199  93.6482720  28.8531630  54.9560678  93.9463974  29.1448368
  55.8438634  93.8653119  27.9212663  52.6337769 102.1924911  25.2605436
  53.0976114 102.4712614  24.4710059  52.3694567 101.2908355  25.0778527
  49.5261850 101.7396392  28.1985199  50.0963207 102.1683661  27.5602684
  50.1169962 101.4578977  28.8969385  51.5706655  98.3148063  22.0695001
  52.2730698  98.7669107  22.5368928  51.2387283  97.6731882  22.6974894
  50.0187016  96.9059820  36.4446211  49.3885677  97.5876101  36.6781607
  49.9123104  96.7942901  35.4999349  45.3131989  96.5731616  27.3712135
  44.5231043  96.8289144  26.8952245  45.8043236  97.3879954  27.4764175
  59.3295798 103.9136855  30.1217416  60.1513242 103.5117042  29.8400097
  59.3258201 103.8105089  31.0733531  47.2646734  96.9376195  24.3295611
  46.4677897  97.0494889  24.8479107  47.0372326  97.2762847  23.4636502
  53.0952402 103.4620898  32.2778126  53.1596834 103.9241306  33.1136298
  52.3863326 102.8318263  32.4060436  43.5969692  96.8262106  29.8027126
  43.8477730  97.7109116  30.0684702  44.1329240  96.6466708  29.0302217
  67.4201791 100.2575604  26.4702387  66.6665500  99.6883002  26.3146391
  67.5549333 100.2238268  27.4173022  52.8100419 105.1289006  22.1457106
  52.6746094 105.9740542  22.5741954  53.3510232 105.3308283  21.3823040
  49.2967759  91.2080586  38.8071462  48.9034705  90.6546784  39.4819106
  50.1133899  91.5191164  39.1977979  46.2629817 102.6464444  22.7185032
  46.7754337 103.4407694  22.8690596  46.9152530 101.9490734  22.6518633
  48.0724701 105.7630200  24.8007785  48.2491330 106.6848165  24.6128769
  48.8681535 105.4488619  25.2302164  52.2135720  92.6238465  36.3991718
  52.9545433  93.2245618  36.3196181  52.4453643  91.8816103  35.8409761
  47.3577058  97.8094832  34.6769948  47.2430573  96.9080089  34.9777047
  46.5021576  98.0558529  34.3254764  54.4368896 105.7512572  36.2757449
  53.9932750 104.9648951  35.9578353  55.0986109 105.9391723  35.6101339
  49.1956017 107.2808374  30.8018127  49.7463442 107.1525437  30.0295121
  48.3567493 107.5803263  30.4513020  56.5350134 106.0315372  34.3038850
  56.5168609 106.8524253  33.8119119  57.4570054 105.9069448  34.5288991
  52.9923188 103.5459502  35.1462358  53.5251525 102.7847790  34.9161666
  52.4637269 103.2533154  35.8886513  56.1592883  88.6519568  30.6756000
  55.8157152  89.5421209  30.5995110  56.5271846  88.4621225  29.8125585
  44.2278734 100.9753098  23.4944602  45.0653956 101.3850107  23.2778310
  44.4057001 100.0352540  23.4644796  56.1243166  98.6428179  19.1828435
  55.6089789  99.4132783  19.4216822  55.8520474  97.9693315  19.8061496
  53.7090277  93.4877880  24.2413673  52.8531873  93.0984730  24.0619312
  54.1217228  93.5669840  23.3813459  55.2389423  91.0224223  28.6405233
  54.7354219  90.9854358  27.8273038  55.5320030  91.9316966  28.7001890
  51.4832309  91.1062953  27.6471415  52.3485306  90.9105761  27.2877304
  51.5509818  90.8773304  28.5740772  61.0977440 101.3960533  21.1181608
  60.3206883 101.0571693  20.6736771  61.7768921 101.4013157  20.4436574
  55.9129469  96.5155271  21.0088216  55.6079604  96.8301420  21.8598359
  56.8659911  96.5936691  21.0515549  54.3575901 102.6745494  22.6581170
  53.8297262 101.9398254  22.3454408  53.8563403 103.4520171  22.4121138
  59.3368747 100.8694515  27.7748216  58.6792421 101.5593776  27.8628345
  60.1409146 101.2590947  28.1182203  49.0894628  93.3365161  25.0187782
  49.6638380  93.1140342  24.2860975  49.6765611  93.4053855  25.7716383
  58.1474206  99.2238887  25.8252158  58.6606087  99.8568879  26.3273868
  58.7975429  98.6240083  25.4595518  49.4164215  95.3669622  19.0383667
  48.5801528  95.7044308  19.3592942  49.2768985  95.2318601  18.1010804
  51.3917296  90.2106409  23.7462851  50.7381708  89.8955427  23.1219466
  51.3497770  89.5882150  24.4722674  52.5028501 100.4925705  15.6616143
  51.5955563 100.2614958  15.8607292  52.9999533  99.6963324  15.8490125
  54.6255036  96.6988343  28.0710499  53.7077598  96.9203290  27.9132187
  55.0415180  96.7734653  27.2122206  55.4090084  98.0979759  23.2013179
  56.1561903  98.6101156  22.8920301  55.6781674  97.7763811  24.0617573
  53.6816734 100.5938299  20.1840133  52.7727954 100.3097332  20.2812603
  53.7111818 101.0137378  19.3243440  58.9136002 104.2044889  23.9531301
  58.4598329 103.3635799  24.0096491  58.2829968 104.8406287  24.2906081
  57.8568921  95.1336875  25.1831968  57.1191678  94.6214261  25.5142211
  58.1095695  94.6937257  24.3715245  57.3568941 106.0421386  24.8881119
  57.6491915 106.6026443  24.1693485  57.8667562 106.3349947  25.6434278
  57.9580549  87.9113127  25.7773738  58.2639425  87.0510490  25.4899653
  58.6833153  88.5030747  25.5772731  44.2504905  98.3143814  24.1655335
  44.0529305  97.7213174  23.4406402  43.6951569  98.0096024  24.8831274
  52.2301628  98.2066920  26.2849929  52.2850238  97.2540756  26.2092405
  51.4192830  98.3626359  26.7691227  50.1693988  96.8243980  24.0440307
  49.3561854  97.1238150  24.4505500  50.6652982  96.4299669  24.7614790
  52.3202566 106.8201737  25.9774572  52.2778745 107.0462583  25.0483104
  53.2365265 106.5865111  26.1260373  55.7668200  97.2885804  32.8755201
  56.1217588  97.5157277  33.7349667  56.4140331  97.6204181  32.2532457
  61.4965937 100.4104240  23.5804530  61.3583835 100.6005836  22.6525720
  61.1402156 101.1723623  24.0372582  49.6608063  94.3962335  29.6601542
  50.3007442  94.2551094  28.9624506  48.8285594  94.1096849  29.2840144
  61.5235316 102.4780767  28.5915802  61.9571823 102.3856056  29.4398856
  62.2366897 102.4538268  27.9535818  50.4368367 103.6964766  25.7736535
  51.2308965 103.2015086  25.5719110  49.7260059 103.1682629  25.4104240
  55.2563211 106.0782861  30.1248903  55.3100234 106.6473798  30.8926618
  54.3877993 106.2484746  29.7602940  46.7451130  97.8407847  21.8496288
  45.8148718  97.7792303  22.0666250  46.8408602  97.3183800  21.0532929
  46.6636679  94.3662660  24.4374529  46.9243497  95.2807993  24.3283690
  47.4853852  93.8987103  24.5871142  48.1361605  95.7800417  31.6073354
  48.8084658  95.5717780  30.9586003  47.3091391  95.5822503  31.1678586
  62.3850866 102.5204468  31.1248687  62.5786756 103.4250278  31.3707962
  62.2851484 102.0611887  31.9587272  54.0387177  92.4062358  33.6239015
  53.3915092  93.1052308  33.5303491  54.8088192  92.8398502  33.9915263
  57.4465975 102.6711211  36.6989568  57.2951481 102.4421762  35.7819652
  57.4370654 103.6281812  36.7120913  54.2151311 100.2443123  31.6835834
  55.1443371 100.3954283  31.5104802  53.7942341 100.3327144  30.8284481
  53.0139643 104.2693788  29.4534372  52.8750729 103.9012572  30.3260310
  52.2254239 104.7841427  29.2818330  54.5644858 103.6475390  26.8423210
  54.2294691 103.6076160  27.7380860  54.0648804 102.9820106  26.3693620
  48.5389102  99.0543020  32.3675791  48.4008900  98.3223259  32.9687330
  49.4494026  98.9651920  32.0859979  51.1671403  98.7662980  31.8559471
  51.8771021  98.1256172  31.8146089  51.1240711  99.0175875  32.7785651
  59.1558181 105.7030333  34.7766050  59.0970728 105.0189553  34.1096633
  59.5577700 106.4449323  34.3246676  49.8800337  95.7528198  33.6755110
  49.3437694  95.3018936  34.3276706  49.2917045  95.8874106  32.9325574
  49.2902596  95.2116849  16.2381574  48.4132062  95.0905650  15.8743820
  49.7660349  94.4202927  15.9860462  59.1575589 103.6669917  33.0080029
  58.2702367 103.3295839  33.1306428  59.7274140 102.9352948  33.2448795
  40.8104736  99.9994009  26.3323081  41.4975776  99.6855739  25.7444096
  40.6552864 100.9035373  26.0590332  45.6139458  94.8884205  30.7608105
  45.5297647  94.2809875  30.0258514  44.7922164  95.3793224  30.7617601
  52.6876742 108.3271369  29.9741273  52.6146914 109.1326341  30.4860577
  52.2454135 108.5263335  29.1489294  52.4766522 107.5643139  23.4844094
  51.6934044 108.1064820  23.5782319  53.1759267 108.0817119  23.8838335
  55.7863172  93.3737769  26.1278300  56.2831871  92.6207731  25.8079370
  55.0150153  93.4102085  25.5621509  63.6392929  99.0778134  27.7696591
  63.6282805  99.9602850  27.3990524  62.7710309  98.7249685  27.5751128
  55.1475426 108.2258203  32.1299431  55.8603398 108.8605668  32.0575333
  54.6565454 108.3222069  31.3139433  56.8692952 102.1309456  23.7016723
  55.9349231 102.2510919  23.5321427  57.0469621 101.2281923  23.4376733
  52.3698141  95.5155152  25.8549984  51.9995928  94.9626192  26.5430890
  52.8657233  94.9113285  25.3024984  60.2565504  97.9726775  24.2366757
  60.7225956  98.8054767  24.1627060  60.7073004  97.5071757  24.9412016
  50.1987339 105.9752647  32.9505002  50.8996799 106.6089130  33.1034396
  49.7282454 106.3167378  32.1900641  58.3241735 104.3170597  21.2352909
  58.6001579 104.2027191  22.1446783  57.4546234 103.9188081  21.1965082
  58.2282167  90.3407362  28.2757658  57.3145246  90.5711589  28.4439865
  58.6575268  90.4245806  29.1271691  57.9988625  98.5297254  30.7757553
  57.3460075  98.7773162  30.1210005  58.3769005  97.7161392  30.4420030
  54.9595799 108.5656947  24.8785723  55.1418193 107.7478603  25.3413475
  55.7828785 108.7824640  24.4410613  55.2937964 107.4925133  22.1400771
  55.8225731 106.9817587  21.5270933  55.5566184 107.1767663  23.0046304
  54.0476198  99.2717065  37.2623590  53.3716835  99.1711195  37.9325965
  54.8703832  99.1156279  37.7259587  45.7955057 105.5089002  29.8836105
  46.3808494 104.7632690  30.0164009  45.5979896 105.8192959  30.7672769
  40.3872712  98.0794602  28.6040548  40.4256811  97.5458193  29.3977666
  39.8813005  97.5529808  27.9851525  47.7663474  92.9259143  32.1003090
  47.8304801  93.7873973  31.6880488  47.7030594  92.3133144  31.3675449
  47.2415747  94.9982275  35.7476125  47.8687786  94.6159352  36.3613649
  46.3843666  94.7796477  36.1131817  57.6409855 105.4045250  37.3529860
  58.1849759 106.0175209  36.8584815  57.0596700 105.9624829  37.8696873
  44.0181289  96.8058704  21.6794479  44.3134731  95.8969383  21.6261533
  43.1169325  96.7846444  21.3575482  55.9267368 108.5265968  28.4844888
  55.8018508 107.7255708  27.9755833  56.5846459 109.0212162  27.9958858
  47.5475536  94.8814701  27.6622028  46.8262122  95.4950669  27.5229501
  48.3368792  95.4172466  27.5838674  57.9902277 106.3274988  30.1124438
  57.0432612 106.2080340  30.0402765  58.3385050 105.4397486  30.1950699
  50.3501850  92.2169127  33.9362680  50.8736252  92.4631424  34.6988989
  50.1314183  93.0489162  33.5165817  45.7469131  94.4872802  21.8033805
  45.4181837  93.6070181  21.6208910  46.1008502  94.4320471  22.6910194
  54.9948710 106.1227705  26.3128790  54.8473672 105.1944412  26.4936360
  55.8202203 106.1447795  25.8285865  48.8610954  94.7745772  22.1709282
  49.2007027  95.3031693  21.4487891  49.3083075  95.1126178  22.9467849
  58.5982832 106.9456263  27.3993663  59.5229379 106.7399125  27.2618114
  58.4298135 106.6972665  28.3083004  51.5554395  93.1582822  31.6212350
  51.2151215  92.3590635  32.0233030  50.8493401  93.4584533  31.0489183
  52.2070867  90.2432135  30.0739673  53.0296936  89.7692613  29.9518564
  52.4508930  91.0222619  30.5738360  50.8479101  93.2720393  20.3702575
  51.5687464  93.6501646  19.8666292  50.2244405  93.9909270  20.4737553
  54.9910224  93.9765542  21.3060907  55.2073839  94.8590180  21.0049735
  54.5104291  93.5851756  20.5766549  49.7309446  96.9351255  27.8831652
  49.5854026  97.2491559  28.7755933  49.2534649  97.5536156  27.3302551
  51.5905829  93.9253803  27.9312541  51.5767397  93.0294897  27.5944839
  52.3078257  93.9324467  28.5650828  53.4431959  94.3591144  29.9765669
  53.1849737  95.2808214  29.9749999  52.9117000  93.9621578  30.6666133
  58.3878148 107.4641931  22.7555754  58.5615026 106.8988353  22.0029607
  58.8807039 108.2642826  22.5735244  44.2055108  99.4756600  30.8219313
  43.6608576 100.2516408  30.9539587  45.0834458  99.8227404  30.6638435
  50.9942724  92.8068184  23.2000112  51.1158636  91.8784830  23.3990999
  50.7044767  92.8206870  22.2878427  53.8633915  90.4923094  26.3366831
  53.8855612  90.5562427  25.3818811  54.2801974  89.6527603  26.5307338
  64.2417539 100.2278354  24.3746054  64.6848685  99.4785679  23.9765177
  63.3644049 100.2188490  23.9919786  44.9921130  98.6026496  33.7149470
  44.2502866  98.7509132  34.3014100  44.6713874  98.8634762  32.8516219
  52.9364792 108.1442474  33.5129860  53.2451919 107.8991621  34.3852560
  53.7340274 108.3489113  33.0248730  45.4377743 106.4891925  25.7459865
  46.2635763 106.1895697  25.3658508  45.0871795 105.7199547  26.1949653
  50.4059276 105.8418393  27.8157538  49.7839286 105.1789098  27.5159766
  51.0764143 105.8679525  27.1331186  43.6386348 104.4078251  26.7048798
  42.8018257 103.9800426  26.5232799  43.6109994 104.6010695  27.6419589
  50.4783804  94.3200181  37.4090044  50.5271959  95.1962304  37.0267814
  51.0206318  93.7777574  36.8361687  60.9638650 104.8641304  36.6891181
  60.1734193 104.8465443  36.1495681  60.7272004 105.4029598  37.4440218
  61.0836525 101.7133771  34.0023910  61.1334530 101.5483778  34.9439433
  60.9750448 100.8461030  33.6121791  49.9672783 104.3922316  21.2915999
  50.1160904 105.0757781  20.6382671  50.7739227 104.3727407  21.8065454
  58.3740287  97.6964699  35.3183217  59.2750150  97.5571164  35.0267214
  58.4488262  97.8619154  36.2581394  52.7083092  95.0731554  34.1636403
  51.8386402  95.3665120  33.8918991  52.9442573  95.6571999  34.8843666
  62.5854722 104.1330712  34.2465931  62.2939530 104.4960693  35.0829392
  61.9726853 103.4197721  34.0679263  63.7850404 101.6983592  26.7668502
  64.6197295 102.1373396  26.9306062  63.9209533 101.2222245  25.9476747
  60.8341910  99.2563327  32.7145989  61.3096031  99.4490973  31.9064841
  59.9107475  99.3122513  32.4689373  47.7225416 100.4187494  22.2977068
  47.4771458  99.5149824  22.4957278  47.8921331 100.4204645  21.3556546
  55.4122126  91.2911170  31.6801823  55.9304070  92.0272197  31.3548312
  55.0577259  91.5975164  32.5148582  46.9921064  96.1515852  19.7963229
  46.2990309  96.2260207  19.1403265  46.7472816  95.3876195  20.3184746
  55.6634720  87.7111453  27.2002720  55.9436474  87.0434642  27.8263146
  56.4485327  87.9040549  26.6877384  59.5343579  96.1329087  30.9474295
  60.4861002  96.2327185  30.9686519  59.3647029  95.3407356  31.4572379
  57.5557958  93.2184670  31.1333696  56.9607890  93.4989683  30.4380184
  57.2707655  93.7078571  31.9050437  62.0131657  99.3535207  30.0616595
  61.9807977  98.4151207  30.2476278  62.6232280  99.4319243  29.3282419
  53.8514987  98.2231260  16.1043799  54.7974092  98.0937468  16.1732217
  53.4729232  97.4845922  16.5813227  62.1626145  96.1446250  30.1074878
  61.6465194  95.3604707  29.9204807  63.0466094  95.8164967  30.2721397
  59.8236872  89.8887266  26.0670690  59.6261693  89.5802354  26.9514022
  60.4336578  90.6148905  26.1968620  67.8308206 100.4151214  29.2022631
  68.5611595 100.1536502  29.7630335  67.2215152  99.6779935  29.2424699
  65.9123504  98.5559076  29.7997083  65.1856667  98.4215041  29.1913574
  65.4970790  98.8635905  30.6053801  53.7353680 102.2749006  37.5644456
  54.6556689 102.4527605  37.7584502  53.7003263 101.3305051  37.4124155
  52.0357905  96.1481236  16.0398684  51.1289360  95.8514349  16.1161397
  52.3133886  95.8511054  15.1732970  42.9535845  97.4687599  26.4897730
  42.6338629  96.6152908  26.1972104  42.4069273  97.6836178  27.2455698
  46.7315753 100.1850040  30.2067237  46.9501762 101.1167148  30.2255271
  47.1441526  99.8258015  30.9922041  53.6519970  90.6918126  22.1942925
  52.8420699  90.3465211  22.5698171  54.3404387  90.3825669  22.7830537
  55.5810519  89.7696173  23.8167222  56.1341557  90.1891626  24.4757245
  55.8180605  88.8431921  23.8590178  51.6043618  95.7583246  39.5969986
  51.5040345  96.7077603  39.5282077  51.3865160  95.4301485  38.7246056
  50.8056689  93.0068171  16.1810663  51.6675853  93.3323070  16.4406480
  50.9907033  92.2199667  15.6683729  42.8224105 101.0890511  28.4590852
  42.1287576 100.6744464  27.9460806  43.5697096 101.1311047  27.8624271
  58.9589326  91.8796698  23.3245886  58.3787995  92.5381502  22.9423938
  58.6925258  91.0574042  22.9133304  57.4092892  91.2801755  25.5267206
  57.9092670  91.3918290  24.7181525  58.0528500  90.9762808  26.1668015
  51.4674888  99.1880385  38.4135047  50.9841970  99.9880745  38.6198936
  51.5535827  99.1988330  37.4602491  44.7360847 101.0208765  26.3356867
  44.7131536 101.1196452  25.3838750  45.0461484 101.8673916  26.6574033
  47.3948225 103.0784920  30.4503481  48.3491479 103.0468862  30.3833413
  47.1960749 102.6175543  31.2653707  47.9847607 101.6486036  33.0174279
  48.8040496 102.1430114  33.0409116  48.2584415 100.7318004  32.9891846
  57.7414204  94.0396788  22.3802234  56.8540059  94.3246439  22.1622429
  58.1568193  93.8790551  21.5329511  61.0928740  94.0643309  26.0956574
  61.8689130  94.5539762  26.3681190  60.3676874  94.4901363  26.5528443
  63.5301298  94.7770928  27.1530514  64.1245789  94.5366664  26.4423822
  63.6027882  94.0578059  27.7804050  57.7155227  99.5551324  22.5952524
  57.6590429 100.0119875  21.7560157  58.2683570  98.7942009  22.4175367
  61.5260033  95.3441056  23.4202644  61.2696968  94.9437692  24.2510852
  60.9012901  96.0584850  23.2952783  65.8372371  98.0837129  25.9273935
  65.2771929  98.1530318  26.7005497  65.2315875  97.9078114  25.2073432
  58.4490007 100.7456105  19.8905054  58.3938811 100.5800377  18.9493498
  57.8236062 101.4532138  20.0467243  43.2382522  95.9824170  33.7166476
  43.8841385  95.4723124  34.2053701  43.0299673  96.7192851  34.2909901
  55.7635914 103.0505017  39.2158616  56.6327074 103.2245669  38.8545251
  55.2842665 103.8699434  39.0934346  51.7586132  90.2464214  19.4690372
  51.7464802  91.1906054  19.6258643  52.6509554  90.0634360  19.1749833
  51.6875696 108.9233105  27.5558129  50.7371327 108.9234966  27.4422501
  51.9908182 108.1765839  27.0394163  55.5738252  86.8406991  23.7236309
  54.8070647  86.2865478  23.8692991  55.9848957  86.9128860  24.5850460
  47.5780013  93.1291787  37.8141490  48.4411474  92.7728592  38.0244815
  47.0045423  92.7905682  38.5016894  69.9003506 106.1341904  31.0584686
  69.5686830 107.0037315  30.8345901  69.3049119 105.8178188  31.7378717
  63.8673035 112.2726636  36.0812934  63.0906369 112.8320556  36.0715798
  64.5063598 112.7583419  36.6027804  71.6593815 109.0553429  29.9155910
  71.0168196 109.3485962  29.2695705  71.1548744 108.9406349  30.7209107
  63.9505817 112.1613837  31.6136619  64.7967012 112.5853250  31.7571268
  63.8904454 111.5047461  32.3075182  67.1005262 109.8218205  33.2717793
  66.8566194 110.5760265  32.7352068  67.3765193 110.2003553  34.1065040
  66.6569954 108.9774638  28.8531630  65.7954433 109.2755892  29.1448368
  66.6832388 109.1945037  27.9212663  60.1361514 106.5372503  38.8071462
  59.7428459 105.9838702  39.4819106  60.9527654 106.8483082  39.1977979
  63.0529474 107.9530382  36.3991718  63.7939188 108.5537536  36.3196181
  63.2847397 107.2108020  35.8409761  66.9986637 103.9811485  30.6756000
  66.6550907 104.8713127  30.5995110  67.3665600 103.7913143  29.8125585
  66.0783178 106.3516141  28.6405233  65.5747973 106.3146276  27.8273038
  66.3713785 107.2608883  28.7001890  62.3226064 106.4354870  27.6471415
  63.1879060 106.2397679  27.2877304  62.3903573 106.2065222  28.5740772
  59.9288383 108.6657078  25.0187782  60.5032135 108.4432260  24.2860975
  60.5159365 108.7345773  25.7716383  62.2311050 105.5398327  23.7462851
  61.5775463 105.2247344  23.1219466  62.1891525 104.9174068  24.4722674
  68.7974303 103.2405045  25.7773738  69.1033180 102.3802408  25.4899653
  69.5226908 103.8322665  25.5772731  66.6061954 112.6177722  32.8755201
  66.9611342 112.8449195  33.7349667  67.2534086 112.9496099  32.2532457
  60.5001818 109.7254253  29.6601542  61.1401197 109.5843012  28.9624506
  59.6679348 109.4388766  29.2840144  57.5030434 109.6954578  24.4374529
  57.7637251 110.6099911  24.3283690  58.3247606 109.2279020  24.5871142
  58.9755359 111.1092335  31.6073354  59.6478413 110.9009697  30.9586003
  58.1485146 110.9114421  31.1678586  64.8780931 107.7354276  33.6239015
  64.2308846 108.4344226  33.5303491  65.6481947 108.1690420  33.9915263
  60.7194091 111.0820115  33.6755110  60.1831448 110.6310854  34.3276706
  60.1310800 111.2166024  32.9325574  66.6256926 108.7029687  26.1278300
  67.1225626 107.9499649  25.8079370  65.8543908 108.7394003  25.5621509
  69.0675921 105.6699280  28.2757658  68.1539001 105.9003507  28.4439865
  69.4969023 105.7537724  29.1271691  68.8382380 113.8589172  30.7757553
  68.1853830 114.1065079  30.1210005  69.2162759 113.0453310  30.4420030
  58.6057229 108.2551060  32.1003090  58.6698555 109.1165891  31.6880488
  58.5424349 107.6425062  31.3675449  58.0809501 110.3274193  35.7476125
  58.7081540 109.9451270  36.3613649  57.2237420 110.1088395  36.1131817
  58.3869291 110.2106618  27.6622028  57.6655877 110.8242586  27.5229501
  59.1762547 110.7464383  27.5838674  61.1895604 107.5461045  33.9362680
  61.7130006 107.7923342  34.6988989  60.9707938 108.3781080  33.5165817
  62.3948150 108.4874740  31.6212350  62.0544970 107.6882553  32.0233030
  61.6887156 108.7876451  31.0489183  63.0464621 105.5724053  30.0739673
  63.8690691 105.0984531  29.9518564  63.2902685 106.3514536  30.5738360
  62.4299583 109.2545721  27.9312541  62.4161152 108.3586814  27.5944839
  63.1472011 109.2616385  28.5650828  64.2825714 109.6883061  29.9765669
  64.0243492 110.6100132  29.9749999  63.7510754 109.2913496  30.6666133
  64.7027669 105.8215012  26.3366831  64.7249366 105.8854345  25.3818811
  65.1195728 104.9819521  26.5307338  61.3177558 109.6492099  37.4090044
  61.3665714 110.5254222  37.0267814  61.8600073 109.1069492  36.8361687
  69.2134042 113.0256616  35.3183217  70.1143904 112.8863081  35.0267214
  69.2882016 113.1911071  36.2581394  63.5476847 110.4023471  34.1636403
  62.6780156 110.6957037  33.8918991  63.7836327 110.9863916  34.8843666
  71.6735664 114.5855245  32.7145989  72.1489786 114.7782891  31.9064841
  70.7501230 114.6414430  32.4689373  66.2515881 106.6203088  31.6801823
  66.7697825 107.3564115  31.3548312  65.8971014 106.9267081  32.5148582
  66.5028475 103.0403371  27.2002720  66.7830229 102.3726560  27.8263146
  67.2879082 103.2332466  26.6877384  70.3737333 111.4621005  30.9474295
  71.3254756 111.5619102  30.9686519  70.2040784 110.6699273  31.4572379
  68.3951713 108.5476588  31.1333696  67.8001645 108.8281601  30.4380184
  68.1101409 109.0370489  31.9050437  73.0019900 111.4738168  30.1074878
  72.4858948 110.6896624  29.9204807  73.8859848 111.1456884  30.2721397
  70.6630626 105.2179183  26.0670690  70.4655448 104.9094272  26.9514022
  71.2730332 105.9440822  26.1968620  66.4204273 105.0988090  23.8167222
  66.9735312 105.5183544  24.4757245  66.6574359 104.1723838  23.8590178
  62.4437372 111.0875164  39.5969986  62.3434099 112.0369521  39.5282077
  62.2258914 110.7593403  38.7246056  66.4132006 102.1698909  23.7236309
  65.6464402 101.6157395  23.8692991  66.8242711 102.2420777  24.5850460
  58.4173767 108.4583704  37.8141490  59.2805229 108.1020509  38.0244815
  57.8439178 108.1197599  38.5016894  14.2834839  21.0939702  24.0775167
  14.8274743  21.7069660  23.5830121  13.7021683  21.6519281  24.5942180
  17.6063633  20.5535756  23.4136488  16.8159177  20.5359895  22.8740987
  17.3696988  21.0924050  24.1685525  12.4060897  18.7399469  25.9403923
  13.2752057  18.9140121  25.5790558  11.9267649  19.5593886  25.8179652
  24.0653373  30.4488095  15.3449198  24.7031783  30.3294842  14.6412538
  23.9474216  31.3968939  15.4037150  21.3562862  31.5550375  21.2396928
  21.3451503  31.1603173  20.3677432  21.5183502  30.8216447  21.8330699
  18.0770123  34.3387487  20.1876112  17.7859989  35.2433117  20.0722778
  18.7127108  34.3804014  20.9020182  19.0026330  31.7164335  16.7777472
  19.5989902  31.4920358  16.0634435  19.0601302  30.9749081  17.3802919
  23.0360008  34.0248902  17.1825906  22.7360732  34.9273941  17.0741713
  22.6911068  33.7581085  18.0347059  20.5098018  27.9621088  22.8058240
  19.7331352  28.5215008  22.7961105  21.1488581  28.4477871  23.3273110
  28.3018799  24.7447881  16.6401217  27.6593179  25.0380414  15.9941011
  27.7973727  24.6300801  17.4454414  18.7644390  30.7706541  22.3676207
  19.5059075  31.3091585  22.0911031  18.0581376  31.3972830  22.5247759
  24.2399730  32.9135682  20.9648369  24.6483086  32.4718092  20.2203001
  23.5176991  32.3388309  21.2182562  20.5930800  27.8508288  18.3381926
  21.4391995  28.2747702  18.4816575  20.5329438  27.1941913  19.0320489
  24.5628545  33.4736872  14.7200658  23.9337407  33.6382586  14.0176725
  24.1754207  33.8878482  15.4911622  28.4417777  34.4091310  12.0745021
  27.7568815  34.7890212  11.5242055  28.5261626  35.0186637  12.8076969
  23.7430245  25.5112657  19.9963099  23.4991177  26.2654717  19.4597375
  24.0190176  25.8898004  20.8310346  25.6968708  32.0551269  18.6740365
  25.9085603  32.6983029  17.9974746  25.6498456  31.2213586  18.2062295
  17.5005754  27.9246189  23.1691517  16.8704415  28.6062470  23.4026914
  17.3941842  27.8129271  22.2244655  26.8114536  34.9323225  16.8462722
  27.6331980  34.5303412  16.5645404  26.8076939  34.8291459  17.7978838
  20.5771140  34.4807268  19.0023433  20.6415572  34.9427675  19.8381605
  19.8682063  33.8504633  19.1305743  34.9020529  31.2761973  13.1947694
  34.1484237  30.7069371  13.0391698  35.0368070  31.2424638  14.1418328
  16.7786497  22.2266955  25.5316768  16.3853442  21.6733154  26.2064413
  17.5952637  22.5377534  25.9223286  19.6954458  23.6424834  23.1237025
  20.4364171  24.2431987  23.0441487  19.9272381  22.9002472  22.5655067
  14.8395796  28.8281202  21.4015255  14.7249311  27.9266459  21.7022353
  13.9840314  29.0744898  21.0500071  21.9187634  36.7698942  23.0002755
  21.4751488  35.9835320  22.6823660  22.5804847  36.9578092  22.3346646
  16.6774755  38.2994744  17.5263434  17.2282180  38.1711807  16.7540428
  15.8386231  38.5989633  17.1758326  24.0168872  37.0501742  21.0284156
  23.9987347  37.8710623  20.5364426  24.9388792  36.9255817  21.2534298
  20.4741926  34.5645871  21.8707665  21.0070263  33.8034160  21.6406973
  19.9456007  34.2719523  22.6131819  26.8187484  31.8880884  14.4993523
  26.1611159  32.5780146  14.5873652  27.6227884  32.2777316  14.8427509
  24.8387679  37.0607755  11.6126426  25.1310653  37.6212812  10.8938791
  25.3486299  37.3536316  12.3679585  19.8021304  37.8388106  12.7019879
  19.7597483  38.0648953  11.7728411  20.7184003  37.6051481  12.8505680
  23.2486938  28.3072174  19.6000508  23.6036325  28.5343647  20.4594974
  23.8959069  28.6390551  18.9777763  29.0054054  33.4967137  15.3161109
  29.4390561  33.4042426  16.1644163  29.7185635  33.4724637  14.6781125
  22.7381949  37.0969231  16.8494209  22.7918971  37.6660167  17.6171925
  21.8696731  37.2671116  16.4848246  29.8669604  33.5390837  17.8493994
  30.0605494  34.4436648  18.0953269  29.7670222  33.0798256  18.6832579
  21.5205915  23.4248728  20.3484321  20.8733830  24.1238678  20.2548798
  22.2906930  23.8584872  20.7160570  24.9284713  33.6897580  23.4234875
  24.7770219  33.4608132  22.5064958  24.9189392  34.6468181  23.4366220
  21.6970049  31.2629493  18.4081141  22.6262109  31.4140652  18.2350108
  21.2761079  31.3513514  17.5529788  20.4958381  35.2880157  16.1779679
  20.3569466  34.9198942  17.0505617  19.7072977  35.8027797  16.0063636
  22.0463596  34.6661760  13.5668516  21.7113428  34.6262530  14.4626166
  21.5467542  34.0006476  13.0938927  16.0207840  30.0729390  19.0921098
  15.8827638  29.3409629  19.6932637  16.9312763  29.9838290  18.8105285
  18.6490140  29.7849349  18.5804777  19.3589759  29.1442541  18.5391396
  18.6059449  30.0362244  19.5030958  26.6376919  36.7216703  21.5011356
  26.5789465  36.0375923  20.8341939  27.0396438  37.4635693  21.0491982
  17.3619074  26.7714567  20.4000417  16.8256431  26.3205306  21.0522013
  16.7735783  26.9060476  19.6570881  15.6567618  43.5378616  14.2945075
  15.8964216  44.1697141  14.9724094  14.8136814  43.1866656  14.5810435
  26.6394326  34.6856287  19.7325336  25.7521105  34.3482208  19.8551735
  27.2092877  33.9539318  19.9694102  20.1695480  39.3457739  16.6986579
  20.0965651  40.1512710  17.2105884  19.7272873  39.5449705  15.8734601
  31.1211667  30.0964504  14.4941898  31.1101543  30.9789219  14.1235831
  30.2529046  29.7436055  14.2996435  22.6294163  39.2444573  18.8544738
  23.3422136  39.8792038  18.7820639  22.1384192  39.3408439  18.0384740
  17.6806077  36.9939016  19.6750309  18.3815536  37.6275499  19.8279703
  17.2101192  37.3353748  18.9145948  25.4807363  29.5483624  17.5002859
  24.8278813  29.7959531  16.8455312  25.8587743  28.7347762  17.1665336
  22.4414537  39.5843317  11.6031029  22.6236931  38.7664973  12.0658782
  23.2647523  39.8011009  11.1655919  21.5294936  30.2903435  23.9868896
  20.8535573  30.1897564  24.6571271  22.3522570  30.1342649  24.4504893
  13.2773795  36.5275371  16.6081411  13.8627232  35.7819059  16.7409316
  13.0798633  36.8379328  17.4918075  20.2717719  41.5970362  18.2226512
  20.8236027  41.7601984  18.9875597  20.6123912  42.1874800  17.5506537
  14.7234485  26.0168645  22.4721431  15.3506523  25.6345722  23.0858956
  13.8662403  25.7982847  22.8377124  25.1228593  36.4231620  24.0775167
  25.6668497  37.0361578  23.5830121  24.5415438  36.9811198  24.5942180
  23.4086106  39.5452338  15.2090194  23.2837245  38.7442078  14.7001140
  24.0665197  40.0398531  14.7204164  25.4721014  37.3461358  16.8369744
  24.5251350  37.2266709  16.7648071  25.8203788  36.4583856  16.9196006
  22.4767448  37.1414074  13.0374097  22.3292410  36.2130782  13.2181667
  23.3020941  37.1634165  12.5531172  26.0801570  37.9642633  14.1238969
  27.0048117  37.7585494  13.9863421  25.9116873  37.7159034  15.0328311
  12.4739867  29.6212866  20.4394777  11.7321603  29.7695501  21.0259407
  12.1532612  29.8821131  19.5761526  20.4183530  39.1628844  20.2375167
  20.7270657  38.9177991  21.1097866  21.2159012  39.3675482  19.7494037
  20.4404142  41.3166754  12.4680543  20.0009132  40.8243132  13.1613400
  21.1912259  40.7739721  12.2272618  17.8878014  36.8604763  14.5402845
  17.2658024  36.1975468  14.2405073  18.5582881  36.8865895  13.8576493
  17.9602542  25.3386551  24.1335351  18.0090697  26.2148673  23.7513120
  18.5025056  24.7963944  23.5606994  28.4457387  35.8827674  23.4136488
  27.6552931  35.8651813  22.8740987  28.2090742  36.4215968  24.1685525
  28.5655262  32.7320140  20.7269216  28.6153267  32.5670148  21.6684739
  28.4569186  31.8647399  20.3367097  25.8559025  28.7151068  22.0428523
  26.7568888  28.5757533  21.7512521  25.9306999  28.8805523  22.9826701
  20.1901830  26.0917923  20.8881709  19.3205140  26.3851489  20.6164298
  20.4261311  26.6758368  21.6088973  30.0673459  35.1517082  20.9711238
  29.7758268  35.5147062  21.8074699  29.4545591  34.4384090  20.7924570
  31.2669142  32.7169962  13.4913808  32.1016033  33.1559766  13.6551369
  31.4028270  32.2408615  12.6722054  28.3160648  30.2749696  19.4391296
  28.7914769  30.4677343  18.6310147  27.3926213  30.3308882  19.1934680
  27.0162317  27.1515457  17.6719602  27.9679739  27.2513554  17.6931826
  26.8465767  26.3593725  18.1817686  29.4950394  30.3721576  16.7861901
  29.4626714  29.4337577  16.9721585  30.1051018  30.4505613  16.0527726
  29.6444883  27.1632620  16.8320184  29.1283931  26.3791076  16.6450113
  30.5284831  26.8351336  16.9966704  35.3126944  31.4337583  15.9267938
  36.0430333  31.1722871  16.4875641  34.7033890  30.6966305  15.9670006
  33.3942241  29.5745446  16.5242389  32.6675405  29.4401411  15.9158881
  32.9789528  29.8822274  17.3299107  21.2172418  33.2935375  24.2889762
  22.1375427  33.4713974  24.4829809  21.1822001  32.3491421  24.1369462
  19.0862356  26.7769616  26.3215292  18.9859082  27.7263973  26.2527383
  18.8683898  26.4487855  25.4491362  18.9493626  30.2066755  25.1380354
  18.4660707  31.0067115  25.3444243  19.0354565  30.2174699  24.1847798
  14.8766963  34.0971289  17.1748788  15.8310217  34.0655232  17.1078719
  14.6779487  33.6361913  17.9899014  15.4666345  32.6672405  19.7419585
  16.2859234  33.1616484  19.7654423  15.7403153  31.7504373  19.7137153
  33.3191109  29.1023499  12.6519242  32.7590667  29.1716688  13.4250804
  32.7134612  28.9264483  11.9318738  16.3886318  40.5360226  14.4037428
  16.2718702  41.4805658  14.3016119  15.5678764  40.2333787  14.7923228
  23.2454652  34.0691387  25.9403923  24.1145811  34.2432039  25.5790558
  22.7661403  34.8885804  25.8179652  17.4140832  41.1888488  17.6193357
  18.3168079  41.2212098  17.9359852  17.1878202  40.2588939  17.6339693
  19.1694434  39.9419474  14.2803435  18.2190065  39.9421336  14.1667808
  19.4726920  39.1952209  13.7639470  15.0598751  24.1478156  24.5386797
  15.9230212  23.7914961  24.7490121  14.4864161  23.8092051  25.2262201
  34.9047127  45.7780013  15.3449198  35.5425537  45.6586760  14.6412538
  34.7867970  46.7260857  15.4037150  31.7136834  45.7307441  15.2810722
  31.3755345  45.6148505  14.3931257  32.5826602  45.3298606  15.2611729
  27.5723649  47.5842917  11.2707613  27.0088515  47.4932854  10.5023901
  27.4576044  46.7642822  11.7510106  32.1956617  46.8842292  21.2396928
  32.1845257  46.4895091  20.3677432  32.3577256  46.1508365  21.8330699
  25.1188081  49.0794109  14.1091834  25.9109373  48.7384933  13.6938133
  25.3584732  49.1889084  15.0293987  33.1523208  51.2513885   6.5822078
  32.5011188  51.8367965   6.1956092  33.9467571  51.7820080   6.6417116
  27.0778835  48.3403022   6.9809213  27.8509711  47.7932009   6.8422088
  27.4304234  49.2047271   7.1923674  28.9163878  49.6679404  20.1876112
  28.6253744  50.5725035  20.0722778  29.5520862  49.7095932  20.9020182
  29.8420085  47.0456253  16.7777472  30.4383657  46.8212275  16.0634435
  29.8995056  46.3040998  17.3802919  34.4588396  43.5031466  12.4202406
  35.2451485  43.0850890  12.0692823  34.7227100  44.4077559  12.5884054
  34.6298473  48.9404317   7.1191063  33.9944306  49.0138943   7.8311967
  34.2995880  49.5297916   6.4410142  39.8596823  43.4406700  13.3235384
  40.5921995  42.8705916  13.5573214  39.1036179  43.0528300  13.7641890
  29.1341402  46.4023794   6.8152038  29.0177660  45.7268697   7.4833122
  29.2443662  45.9156168   5.9984191  31.4772943  45.8633941  10.5198727
  31.1131150  45.3364562  11.2311648  32.3340059  45.4732410  10.3465212
  37.3822243  37.1528274  17.7829993  37.0505568  38.0223685  17.5591208
  36.7867857  36.8364558  18.4624023  33.8753763  49.3540820  17.1825906
  33.5754486  50.2565859  17.0741713  33.5304822  49.0873003  18.0347059
  27.3266244  45.8054617  13.2162610  26.4016741  45.6730831  13.4240302
  27.5750658  46.5848836  13.7132552  37.2750907  41.8723360  14.8623343
  36.3667784  41.8038768  14.5682104  37.2238503  42.3495305  15.6905168
  31.0967651  43.3481498   6.5006742  30.9767276  43.7938549   7.3392222
  30.4020239  43.6966816   5.9420280  24.6875055  45.4487890  14.0506399
  24.8167437  45.7022369  14.9645811  24.0072507  46.0415598  13.7311054
  28.8574543  56.1185140  10.1496873  28.7798572  57.0692965  10.2285354
  28.2536186  55.7731013  10.8071800  31.3491773  43.2913006  22.8058240
  30.5725107  43.8506926  22.7961105  31.9882336  43.7769789  23.3273110
  39.1412553  40.0739798  16.6401217  38.4986933  40.3672332  15.9941011
  38.6367482  39.9592719  17.4454414  36.7952717  43.8202972   7.3287076
  37.7070573  44.0530358   7.1534774  36.2862364  44.4040016   6.7662155
  29.6038145  46.0998459  22.3676207  30.3452829  46.6383503  22.0911031
  28.8975130  46.7264748  22.5247759  35.0793484  48.2427599  20.9648369
  35.4876840  47.8010010  20.2203001  34.3570746  47.6680227  21.2182562
  31.4324555  43.1800206  18.3381926  32.2785750  43.6039620  18.4816575
  31.3723192  42.5233830  19.0320489  35.4022299  48.8028790  14.7200658
  34.7731162  48.9674504  14.0176725  35.0147961  49.2170400  15.4911622
  39.2811531  49.7383228  12.0745021  38.5962569  50.1182129  11.5242055
  39.3655380  50.3478555  12.8076969  34.5824000  40.8404575  19.9963099
  34.3384932  41.5946635  19.4597375  34.8583930  41.2189922  20.8310346
  36.5362463  47.3843187  18.6740365  36.7479358  48.0274947  17.9974746
  36.4892211  46.5505503  18.2062295  34.1388692  39.9961008  15.5776937
  33.2773171  40.2942261  15.8693675  34.1651126  40.2131406  14.6457970
  30.9550261  48.5403198  11.9850743  31.4188607  48.8190901  11.1955365
  30.6907059  47.6386643  11.8023833  27.8474342  48.0874680  14.9230506
  28.4175699  48.5161948  14.2847990  28.4382454  47.8057264  15.6214692
  29.8919147  44.6626350   8.7940308  30.5943190  45.1147394   9.2614234
  29.5599776  44.0210169   9.4220201  28.3399509  43.2538107  23.1691517
  27.7098169  43.9354388  23.4026914  28.2335596  43.1421189  22.2244655
  23.6344481  42.9209903  14.0957441  22.8443535  43.1767432  13.6197552
  24.1255728  43.7358241  14.2009482  37.6508291  50.2615142  16.8462722
  38.4725734  49.8595330  16.5645404  37.6470693  50.1583376  17.7978838
  25.5859226  43.2854482  11.0540918  24.7890390  43.3973177  11.5724414
  25.3584819  43.6241135  10.1881809  31.4164894  49.8099186  19.0023433
  31.4809327  50.2719593  19.8381605  30.7075818  49.1796551  19.1305743
  21.9182184  43.1740394  16.5272432  22.1690222  44.0587403  16.7930008
  22.4541732  42.9944995  15.7547524  45.7414284  46.6053891  13.1947694
  44.9877992  46.0361289  13.0391698  45.8761825  46.5716555  14.1418328
  31.1312912  51.4767293   8.8702413  30.9958586  52.3218829   9.2987261
  31.6722724  51.6786571   8.1068347  27.6180251  37.5558873  25.5316768
  27.2247197  37.0025071  26.2064413  28.4346392  37.8669451  25.9223286
  24.5842309  48.9942731   9.4430338  25.0966830  49.7885981   9.5935903
  25.2365022  48.2969022   9.3763940  26.3937194  52.1108487  11.5253091
  26.5703822  53.0326452  11.3374075  27.1894027  51.7966907  11.9547471
  30.5348212  38.9716752  23.1237025  31.2757926  39.5723905  23.0441487
  30.7666135  38.2294390  22.5655067  25.6789550  44.1573119  21.4015255
  25.5643065  43.2558377  21.7022353  24.8234068  44.4036816  21.0500071
  32.7581388  52.0990860  23.0002755  32.3145242  51.3127238  22.6823660
  33.4198602  52.2870010  22.3346646  27.5168509  53.6286661  17.5263434
  28.0675934  53.5003725  16.7540428  26.6779985  53.9281550  17.1758326
  34.8562626  52.3793660  21.0284156  34.8381101  53.2002541  20.5364426
  35.7782546  52.2547735  21.2534298  31.3135680  49.8937789  21.8707665
  31.8464017  49.1326077  21.6406973  30.7849761  49.6011441  22.6131819
  34.4805375  34.9997855  17.4001307  34.1369645  35.8899497  17.3240417
  34.8484338  34.8099513  16.5370892  22.5491226  47.3231385  10.2189909
  23.3866448  47.7328394  10.0023616  22.7269494  46.3830828  10.1890103
  34.4455658  44.9906466   5.9073742  33.9302281  45.7611071   6.1462129
  34.1732966  44.3171602   6.5306803  32.0302769  39.8356167  10.9658980
  31.1744365  39.4463017  10.7864619  32.4429721  39.9148128  10.1058766
  33.5601916  37.3702510  15.3650540  33.0566711  37.3332645  14.5518345
  33.8532522  38.2795253  15.4247196  29.8044801  37.4541240  14.3716722
  30.6697798  37.2584049  14.0122611  29.8722310  37.2251592  15.2986078
  39.4189932  47.7438821   7.8426915  38.6419375  47.4049980   7.3982077
  40.0981413  47.7491444   7.1681880  34.2341961  42.8633558   7.7333523
  33.9292097  43.1779707   8.5843666  35.1872403  42.9414978   7.7760856
  32.6788393  49.0223781   9.3826477  32.1509755  48.2876541   9.0699714
  32.1775896  49.7998458   9.1366445  37.6581239  47.2172802  14.4993523
  37.0004913  47.9072063  14.5873652  38.4621638  47.6069234  14.8427509
  27.4107121  39.6843448  11.7433088  27.9850872  39.4618629  11.0106281
  27.9978103  39.7532142  12.4961690  36.4686698  45.5717175  12.5497465
  36.9818580  46.2047167  13.0519175  37.1187922  44.9718370  12.1840825
  29.7129788  36.5584697  10.4708158  29.0594201  36.2433714   9.8464773
  29.6710262  35.9360437  11.1967981  30.8240993  46.8403992   2.3861450
  29.9168055  46.6093245   2.5852599  31.3212025  46.0441611   2.5735431
  33.7309072  55.5501499   5.3058136  33.0570771  55.8533196   5.9143094
  34.1174894  56.3530579   4.9563593  32.9467529  43.0466630  14.7955805
  32.0290090  43.2681577  14.6377493  33.3627672  43.1212941  13.9367513
  33.7302576  44.4458046   9.9258486  34.4774395  44.9579443   9.6165608
  33.9994166  44.1242099  10.7862879  32.0029227  46.9416587   6.9085440
  31.0940446  46.6575619   7.0057910  32.0324310  47.3615665   6.0488747
  37.2348494  50.5523176  10.6776607  36.7810821  49.7114086  10.7341798
  36.6042461  51.1884574  11.0151388  36.1781414  41.4815162  11.9077275
  35.4404170  40.9692548  12.2387518  36.4308187  41.0415544  11.0960552
  35.6781433  52.3899673  11.6126426  35.9704408  52.9504730  10.8938791
  36.1880054  52.6828234  12.3679585  36.2793041  34.2591414  12.5019044
  36.5851918  33.3988778  12.2144959  37.0045646  34.8509034  12.3018038
  22.5717397  44.6622101  10.8900642  22.3741797  44.0691461  10.1651709
  22.0164061  44.3574311  11.6076581  30.5514121  44.5545207  13.0095235
  30.6062730  43.6019044  12.9337712  29.7405323  44.7104646  13.4936534
  31.7005314  48.4825330   4.2473519  31.2624744  47.7661189   3.7879156
  32.4415755  48.7101445   3.6858610  28.4906481  43.1722267  10.7685614
  27.6774346  43.4716438  11.1750806  28.9865475  42.7777956  11.4860096
  30.6415058  53.1680024  12.7019879  30.5991237  53.3940870  11.7728411
  31.5577757  52.9343398  12.8505680  34.0880692  43.6364091  19.6000508
  34.4430080  43.8635565  20.4594974  34.7352823  43.9682468  18.9777763
  39.8178429  46.7582527  10.3049837  39.6796328  46.9484123   9.3771026
  39.4614648  47.5201910  10.7617888  27.9820555  40.7440622  16.3846849
  28.6219935  40.6029382  15.6869812  27.1498086  40.4575136  16.0085451
  39.8447809  48.8259054  15.3161109  40.2784315  48.7334343  16.1644163
  40.5579389  48.8016555  14.6781125  28.7580859  50.0443053  12.4981842
  29.5521458  49.5493373  12.2964417  28.0472552  49.5160916  12.1349547
  33.5775704  52.4261148  16.8494209  33.6312726  52.9952085  17.6171925
  32.7090485  52.5963033  16.4848246  25.0663623  44.1886135   8.5741594
  24.1361211  44.1270590   8.7911556  25.1621095  43.6662087   7.7778235
  24.9849172  40.7140947  11.1619836  25.2455989  41.6286281  11.0528996
  25.8066344  40.2465390  11.3116449  26.4574097  42.1278705  18.3318660
  27.1297150  41.9196067  17.6831309  25.6303884  41.9300791  17.8923893
  40.7063358  48.8682755  17.8493994  40.8999248  49.7728565  18.0953269
  40.6063976  48.4090174  18.6832579  32.3599669  38.7540646  20.3484321
  31.7127584  39.4530595  20.2548798  33.1300684  39.1876789  20.7160570
  35.7678467  49.0189498  23.4234875  35.6163973  48.7900049  22.5064958
  35.7583146  49.9760099  23.4366220  32.5363803  46.5921410  18.4081141
  33.4655863  46.7432570  18.2350108  32.1154833  46.6805431  17.5529788
  31.3352135  50.6172075  16.1779679  31.1963221  50.2490859  17.0505617
  30.5466731  51.1319714  16.0063636  31.9300287  55.7181171   7.5205215
  32.1052043  55.2469215   8.3350838  31.2433075  56.3446938   7.7486476
  32.8857350  49.9953678  13.5668516  32.5507183  49.9554448  14.4626166
  32.3861296  49.3298394  13.0938927  26.8601594  45.4021308  19.0921098
  26.7221392  44.6701546  19.6932637  27.7706518  45.3130208  18.8105285
  35.8216542  47.3409712   3.8405576  35.2045713  46.6156540   3.7438629
  35.3533030  48.1019072   3.4972650  29.4883895  45.1141267  18.5804777
  30.1983513  44.4734459  18.5391396  29.4453203  45.3654162  19.5030958
  37.4770674  52.0508620  21.5011356  37.4183220  51.3667840  20.8341939
  37.8790192  52.7927610  21.0491982  28.2012829  42.1006485  20.4000417
  27.6650186  41.6497223  21.0522013  27.6129537  42.2352394  19.6570881
  26.4961372  58.8670534  14.2945075  26.7357971  59.4989058  14.9724094
  25.6530569  58.5158574  14.5810435  37.4788081  50.0148204  19.7325336
  36.5914860  49.6774126  19.8551735  38.0486632  49.2831235  19.9694102
  19.1317228  46.3472296  13.0568388  19.8188268  46.0334026  12.4689403
  18.9765357  47.2513661  12.7835639  23.9351950  41.2362493  17.4853411
  23.8510139  40.6288162  16.7503821  23.1134657  41.7271511  17.4862908
  31.0089234  54.6749657  16.6986579  30.9359406  55.4804628  17.2105884
  30.5666627  54.8741622  15.8734601  30.7979014  53.9121427  10.2089401
  30.0146536  54.4543107  10.3027625  31.4971759  54.4295406  10.6083642
  34.1075664  39.7216056  12.8523606  34.6044364  38.9686018  12.5324676
  33.3362646  39.7580373  12.2866816  41.9605421  45.4256422  14.4941898
  41.9495298  46.3081137  14.1235831  41.0922801  45.0727972  14.2996435
  33.4687918  54.5736491  18.8544738  34.1815890  55.2083955  18.7820639
  32.9777946  54.6700357  18.0384740  35.1905445  48.4787743  10.4262030
  34.2561723  48.5989206  10.2566734  35.3682113  47.5760210  10.1622039
  30.6910633  41.8633439  12.5795291  30.3208420  41.3104479  13.2676196
  31.1869725  41.2591573  12.0270291  38.5777996  44.3205063  10.9612064
  39.0438448  45.1533054  10.8872366  39.0285497  43.8550044  11.6657322
  28.5199831  52.3230934  19.6750309  29.2209291  52.9567417  19.8279703
  28.0494946  52.6645666  18.9145948  36.6454227  50.6648884   7.9598216
  36.9214071  50.5505478   8.8692090  35.7758726  50.2666369   7.9210389
  36.5494659  36.6885650  15.0002965  35.6357739  36.9189876  15.1685172
  36.9787760  36.7724094  15.8516997  36.3201117  44.8775542  17.5002859
  35.6672568  45.1251449  16.8455312  36.6981497  44.0639680  17.1665336
  33.2808291  54.9135235  11.6031029  33.4630686  54.0956891  12.0658782
  34.1041277  55.1302927  11.1655919  33.6150457  53.8403420   8.8646078
  34.1438223  53.3295874   8.2516240  33.8778676  53.5245950   9.7291611
  32.3688690  45.6195353  23.9868896  31.6929327  45.5189482  24.6571271
  33.1916324  45.4634566  24.4504893  24.1167549  51.8567289  16.6081411
  24.7020986  51.1110977  16.7409316  23.9192388  52.1671246  17.4918075
  26.9706205  54.8918537  11.6243854  26.3016580  55.3764664  11.1407894
  26.8319074  55.1387757  12.5387232  18.7085204  44.4272889  15.3285855
  18.7469304  43.8936480  16.1222973  18.2025497  43.9008095  14.7096832
  31.1111473  56.9262280  18.2226512  31.6629781  57.0893902  18.9875597
  31.4517667  57.5166718  17.5506537  26.0875966  39.2737430  18.8248397
  26.1517293  40.1352261  18.4125795  26.0243087  38.6611431  18.0920755
  25.5628239  41.3460562  22.4721431  26.1900278  40.9637640  23.0858956
  24.7056158  41.1274764  22.8377124  35.9622348  51.7523538  24.0775167
  36.5062252  52.3653496  23.5830121  35.3809192  52.3103116  24.5942180
  22.3393782  43.1536991   8.4039786  22.6347223  42.2447670   8.3506840
  21.4381818  43.1324731   8.0820788  34.2479861  54.8744256  15.2090194
  34.1231000  54.0733995  14.7001140  34.9058952  55.3690449  14.7204164
  25.8688029  41.2292988  14.3867335  25.1474615  41.8428956  14.2474808
  26.6581285  41.7650753  14.3083981  36.3114769  52.6753276  16.8369744
  35.3645104  52.5558627  16.7648071  36.6597542  51.7875774  16.9196006
  28.6714342  38.5647415  20.6607986  29.1948744  38.8109711  21.4234296
  28.4526676  39.3967449  20.2411124  33.3161202  52.4705992  13.0374097
  33.1686165  51.5422699  13.2181667  34.1414696  52.4926083  12.5531172
  27.1823446  41.1224059   8.8954589  27.5219519  41.6509980   8.1733197
  27.6295567  41.4604465   9.6713155  36.9195324  53.2934551  14.1238969
  37.8441872  53.0877412  13.9863421  36.7510627  53.0450952  15.0328311
  29.8766887  39.5061110  18.3457657  29.5363708  38.7068923  18.7478337
  29.1705894  39.8062821  17.7734490  30.5283359  36.5910422  16.7984980
  31.3509428  36.1170900  16.6763870  30.7721423  37.3700906  17.2983666
  29.1691594  39.6198681   7.0947882  29.8899956  39.9979933   6.5911598
  28.5456898  40.3387557   7.1982860  33.3122717  40.3243830   8.0306214
  33.5286331  41.2068467   7.7295042  32.8316784  39.9330043   7.3011856
  28.0521938  43.2829543  14.6076959  27.9066519  43.5969846  15.5001240
  27.5747142  43.9014443  14.0547857  29.9118321  40.2732091  14.6557848
  29.8979890  39.3773184  14.3190146  30.6290749  40.2802754  15.2896134
  31.7644451  40.7069431  16.7010976  31.5062229  41.6286502  16.6995306
  31.2329492  40.3099865  17.3911440  36.7090640  53.8120218   9.4801061
  36.8827518  53.2466641   8.7274913  37.2019531  54.6121113   9.2980551
  22.5267600  45.8234887  17.5464620  21.9821068  46.5994695  17.6784894
  23.4046950  46.1705692  17.3883741  29.3155217  39.1546471   9.9245418
  29.4371128  38.2263117  10.1236306  29.0257259  39.1685157   9.0123734
  32.1846407  36.8401381  13.0612138  32.2068104  36.9040715  12.1064118
  32.6014466  36.0005890  13.2552644  42.5630031  46.5756641  11.0991361
  43.0061177  45.8263966  10.7010484  41.6856542  46.5666777  10.7165093
  37.6965813  53.1286982   6.5797959  38.3916717  53.7493675   6.7985274
  38.0388963  52.2782334   6.8550337  23.3133622  44.9504783  20.4394777
  22.5715358  45.0987419  21.0259407  22.9926366  45.2113049  19.5761526
  39.5957236  50.5786688   8.1085290  40.1208560  50.9173961   7.3834610
  39.5079588  49.6433703   7.9248425  31.2577285  54.4920762  20.2375167
  31.5664411  54.2469908  21.1097866  32.0552767  54.6967400  19.7494037
  31.2797897  56.6458671  12.4680543  30.8402887  56.1535050  13.1613400
  32.0306014  56.1031639  12.2272618  23.7590236  52.8370212  12.4705171
  24.5848256  52.5373984  12.0903815  23.4084288  52.0677835  12.9194960
  28.7271769  52.1896680  14.5402845  28.1051778  51.5267385  14.2405073
  29.3976636  52.2157812  13.8576493  21.9598841  50.7556539  13.4294105
  21.1230749  50.3278713  13.2478106  21.9322486  50.9488982  14.3664896
  28.7996296  40.6678468  24.1335351  28.8484452  41.5440591  23.7513120
  29.3418810  40.1255861  23.5606994  39.2851142  51.2119592  23.4136488
  38.4946686  51.1943730  22.8740987  39.0484496  51.7507885  24.1685525
  39.4049017  48.0612058  20.7269216  39.4547022  47.8962065  21.6684739
  39.2962940  47.1939317  20.3367097  28.2885276  50.7400604   8.0161305
  28.4373396  51.4236068   7.3627978  29.0951719  50.7205694   8.5310761
  36.6952779  44.0442986  22.0428523  37.5962642  43.9049451  21.7512521
  36.7700754  44.2097441  22.9826701  31.0295585  41.4209841  20.8881709
  30.1598894  41.7143407  20.6164298  31.2655065  42.0050286  21.6088973
  40.9067214  50.4809000  20.9711238  40.6152022  50.8438980  21.8074699
  40.2939345  49.7676008  20.7924570  42.1062896  48.0461879  13.4913808
  42.9409788  48.4851683  13.6551369  42.2422025  47.5700532  12.6722054
  39.1554402  45.6041614  19.4391296  39.6308524  45.7969260  18.6310147
  38.2319967  45.6600800  19.1934680  26.0437909  46.7665781   9.0222374
  25.7983951  45.8628111   9.2202584  26.2133823  46.7682932   8.0801852
  33.7334619  37.6389458  18.4047130  34.2516562  38.3750485  18.0793618
  33.3789751  37.9453451  19.2393889  33.9847213  34.0589740  13.9248026
  34.2648966  33.3912929  14.5508453  34.7697820  34.2518836  13.4122690
  31.7880681  53.2348734   5.4873053  31.2154648  53.8538921   5.0343525
  32.3613475  53.7848096   6.0212975  37.8556071  42.4807374  17.6719602
  38.8073494  42.5805472  17.6931826  37.6859521  41.6885643  18.1817686
  35.8770451  39.5662957  17.8579003  35.2820383  39.8467970  17.1625491
  35.5920147  40.0556858  18.6295744  35.0077941  53.5185884   6.6181635
  35.9408614  53.4531446   6.8214511  34.9201154  54.3542151   6.1596168
  37.6365958  52.8351755   3.5785583  37.5579589  52.5011618   4.4721341
  38.4575624  53.3273523   3.5777055  40.3344149  45.7013494  16.7861901
  40.3020469  44.7629495  16.9721585  40.9444772  45.7797531  16.0527726
  32.1727480  44.5709547   2.8289105  33.1186584  44.4415755   2.8977523
  31.7941725  43.8324209   3.3058533  40.4838637  42.4924537  16.8320184
  39.9677686  41.7082994  16.6450113  41.3678586  42.1643254  16.9966704
  38.1449364  36.2365553  12.7915997  37.9474185  35.9280641  13.6759329
  38.7549070  36.9627192  12.9213927  46.1520699  46.7629501  15.9267938
  46.8824087  46.5014789  16.4875641  45.5427644  46.0258223  15.9670006
  44.2335996  44.9037363  16.5242389  43.5069159  44.7693328  15.9158881
  43.8183283  45.2114192  17.3299107  32.0566172  48.6227293  24.2889762
  32.9769182  48.8005892  24.4829809  32.0215755  47.6783338  24.1369462
  21.2748337  43.8165887  13.2143037  20.9551122  42.9631195  12.9217411
  20.7281765  44.0314465  13.9701004  25.0528245  46.5328328  16.9312543
  25.2714255  47.4645435  16.9500577  25.4654019  46.1736302  17.7167347
  31.9732463  37.0396413   8.9188232  31.1633191  36.6943498   9.2943478
  32.6616880  36.7303957   9.5075843  33.9023011  36.1174460  10.5412528
  34.4554049  36.5369913  11.2002552  34.1393097  35.1910208  10.5835484
  29.9256110  42.1061533  26.3215292  29.8252837  43.0555890  26.2527383
  29.7077652  41.7779772  25.4491362  21.1436597  47.4368798  15.1836158
  20.4500069  47.0222751  14.6706113  21.8909588  47.4789335  14.5869577
  37.2801818  38.2274985  10.0491193  36.7000487  38.8859789   9.6669245
  37.0137751  37.4052330   9.6378610  35.7305384  37.6280043  12.2512513
  36.2305163  37.7396577  11.4426832  36.3740992  37.3241096  12.8913321
  29.7887380  45.5358672  25.1380354  29.3054462  46.3359032  25.3444243
  29.8748319  45.5466617  24.1847798  23.0573340  47.3687052  13.0602173
  23.0344028  47.4674739  12.1084056  23.3673976  48.2152203  13.3819339
  25.7160718  49.4263207  17.1748788  26.6703971  49.3947149  17.1078719
  25.5173241  48.9653831  17.9899014  26.3060100  47.9964323  19.7419585
  27.1252989  48.4908402  19.7654423  26.5796907  47.0796291  19.7137153
  36.0626696  40.3875075   9.1047541  35.1752551  40.6724726   8.8867736
  36.4780685  40.2268839   8.2574818  39.4141232  40.4121596  12.8201880
  40.1901622  40.9018049  13.0926497  38.6889366  40.8379651  13.2773750
  41.8513791  41.1249216  13.8775821  42.4458282  40.8844951  13.1669129
  41.9240374  40.4056346  14.5049357  24.0710946  54.9682826  14.1918986
  23.9365414  54.2083227  13.6256984  23.6543009  55.6923726  13.7247775
  35.2069909  50.1519750   3.1995561  35.9105760  50.3569753   3.8153217
  34.4832558  50.7196512   3.4644644  36.0367720  45.9029611   9.3197831
  35.9802921  46.3598163   8.4805464  36.5896062  45.1420296   9.1420674
  39.8472526  41.6919343  10.1447951  39.5909460  41.2915979  10.9756158
  39.2225394  42.4063137  10.0198090  44.1584863  44.4315416  12.6519242
  43.5984421  44.5008606  13.4250804  43.5528367  44.2556401  11.9318738
  27.2280072  55.8652143  14.4037428  27.1112456  56.8097576  14.3016119
  26.4072519  55.5625705  14.7923228  37.1156607  50.5902279   5.2494021
  37.9502211  50.1583478   5.0671496  36.9540950  50.4184293   6.1770915
  36.7702499  47.0934393   6.6150360  36.7151303  46.9278664   5.6738804
  36.1448554  47.8010425   6.7712550  21.5595014  42.3302457  20.4411783
  22.2053878  41.8201411  20.9299008  21.3512165  43.0671139  21.0155208
  34.0848406  49.3983304  25.9403923  34.9539566  49.5723957  25.5790558
  33.6055158  50.2177721  25.8179652  28.2534586  56.5180405  17.6193357
  29.1561833  56.5504016  17.9359852  28.0271956  55.5880856  17.6339693
  30.0088188  55.2711392  14.2803435  29.0583819  55.2713254  14.1667808
  30.3120675  54.5244126  13.7639470  33.8950744  33.1885278  10.4481615
  33.1283140  32.6343765  10.5938298  34.3061449  33.2607147  11.3095767
  25.8992505  39.4770074  24.5386797  26.7623967  39.1206879  24.7490121
  25.3257916  39.1383969  25.2262201  45.7440882  61.1071930  15.3449198
  46.3819292  60.9878678  14.6412538  45.6261725  62.0552774  15.4037150
  42.5530588  61.0599358  15.2810722  42.2149100  60.9440423  14.3931257
  43.4220356  60.6590524  15.2611729  38.4117404  62.9134835  11.2707613
  37.8482269  62.8224772  10.5023901  38.2969799  62.0934739  11.7510106
  43.0350371  62.2134210  21.2396928  43.0239012  61.8187008  20.3677432
  43.1971011  61.4800283  21.8330699  35.9581836  64.4086026  14.1091834
  36.7503128  64.0676851  13.6938133  36.1978486  64.5181001  15.0293987
  43.9916963  66.5805803   6.5822078  43.3404942  67.1659883   6.1956092
  44.7861325  67.1111997   6.6417116  37.9172590  63.6694940   6.9809213
  38.6903466  63.1223927   6.8422088  38.2697989  64.5339189   7.1923674
  39.7557632  64.9971322  20.1876112  39.4647498  65.9016953  20.0722778
  40.3914617  65.0387850  20.9020182  40.6813839  62.3748170  16.7777472
  41.2777411  62.1504193  16.0634435  40.7388811  61.6332916  17.3802919
  40.2538868  59.8287606   4.6127663  40.5064388  59.3069127   3.8511126
  39.3163427  59.6653751   4.7154346  45.2982150  58.8323384  12.4202406
  46.0845240  58.4142807  12.0692823  45.5620855  59.7369476  12.5884054
  45.4692228  64.2696234   7.1191063  44.8338061  64.3430861   7.8311967
  45.1389634  64.8589833   6.4410142  50.6990578  58.7698617  13.3235384
  51.4315749  58.1997834  13.5573214  49.9429933  58.3820218  13.7641890
  39.9735156  61.7315712   6.8152038  39.8571414  61.0560615   7.4833122
  40.0837416  61.2448086   5.9984191  42.3166697  61.1925859  10.5198727
  41.9524904  60.6656480  11.2311648  43.1733813  60.8024328  10.3465212
  48.2215998  52.4820191  17.7829993  47.8899323  53.3515602  17.5591208
  47.6261611  52.1656475  18.4624023  41.9572184  56.2215759   5.5160075
  42.1246587  57.0895995   5.8830546  41.7669353  56.3843040   4.5921365
  44.7147517  64.6832737  17.1825906  44.4148241  65.5857776  17.0741713
  44.3698577  64.4164921  18.0347059  38.1659999  61.1346534  13.2162610
  37.2410495  61.0022748  13.4240302  38.4144412  61.9140754  13.7132552
  48.1144661  57.2015278  14.8623343  47.2061539  57.1330686  14.5682104
  48.0632257  57.6787223  15.6905168  41.9361405  58.6773416   6.5006742
  41.8161030  59.1230467   7.3392222  41.2413994  59.0258734   5.9420280
  35.5268810  60.7779808  14.0506399  35.6561191  61.0314287  14.9645811
  34.8466261  61.3707516  13.7311054  39.6968297  71.4477058  10.1496873
  39.6192327  72.3984883  10.2285354  39.0929941  71.1022930  10.8071800
  42.1885527  58.6204923  22.8058240  41.4118861  59.1798843  22.7961105
  42.8276090  59.1061706  23.3273110  49.9806308  55.4031716  16.6401217
  49.3380688  55.6964249  15.9941011  49.4761236  55.2884636  17.4454414
  47.6346471  59.1494889   7.3287076  48.5464327  59.3822276   7.1534774
  47.1256118  59.7331933   6.7662155  40.4431899  61.4290377  22.3676207
  41.1846584  61.9675421  22.0911031  39.7368885  62.0556665  22.5247759
  45.9187239  63.5719517  20.9648369  46.3270595  63.1301928  20.2203001
  45.1964500  62.9972145  21.2182562  42.2718309  58.5092124  18.3381926
  43.1179504  58.9331537  18.4816575  42.2116947  57.8525748  19.0320489
  46.2416054  64.1320708  14.7200658  45.6124916  64.2966422  14.0176725
  45.8541716  64.5462317  15.4911622  50.1205285  65.0675146  12.0745021
  49.4356324  65.4474047  11.5242055  50.2049135  65.6770472  12.8076969
  45.4217754  56.1696492  19.9963099  45.1778686  56.9238553  19.4597375
  45.6977685  56.5481840  20.8310346  47.3756217  62.7135105  18.6740365
  47.5873112  63.3566864  17.9974746  47.3285965  61.8797421  18.2062295
  44.9782446  55.3252925  15.5776937  44.1166925  55.6234179  15.8693675
  45.0044881  55.5423324  14.6457970  41.7944015  63.8695116  11.9850743
  42.2582361  64.1482819  11.1955365  41.5300814  62.9678560  11.8023833
  38.6868097  63.4166597  14.9230506  39.2569454  63.8453866  14.2847990
  39.2776208  63.1349182  15.6214692  40.7312902  59.9918268   8.7940308
  41.4336945  60.4439312   9.2614234  40.3993530  59.3502087   9.4220201
  39.1793263  58.5830025  23.1691517  38.5491924  59.2646306  23.4026914
  39.0729351  58.4713106  22.2244655  34.4738235  58.2501821  14.0957441
  33.6837289  58.5059349  13.6197552  34.9649483  59.0650159  14.2009482
  48.4902045  65.5907060  16.8462722  49.3119489  65.1887247  16.5645404
  48.4864448  65.4875294  17.7978838  36.4252981  58.6146400  11.0540918
  35.6284144  58.7265094  11.5724414  36.1978573  58.9533052  10.1881809
  42.2558648  65.1391103  19.0023433  42.3203081  65.6011511  19.8381605
  41.5469572  64.5088468  19.1305743  32.7575938  58.5032311  16.5272432
  33.0083977  59.3879321  16.7930008  33.2935487  58.3236913  15.7547524
  56.5808038  61.9345808  13.1947694  55.8271746  61.3653207  13.0391698
  56.7155579  61.9008473  14.1418328  41.9706666  66.8059211   8.8702413
  41.8352341  67.6510747   9.2987261  42.5116479  67.0078488   8.1068347
  38.4574006  52.8850791  25.5316768  38.0640951  52.3316989  26.2064413
  39.2740146  53.1961369  25.9223286  35.4236064  64.3234649   9.4430338
  35.9360584  65.1177899   9.5935903  36.0758776  63.6260939   9.3763940
  37.2330948  67.4400405  11.5253091  37.4097577  68.3618370  11.3374075
  38.0287782  67.1258824  11.9547471  41.3741967  54.3008670  23.1237025
  42.1151680  54.9015823  23.0441487  41.6059890  53.5586308  22.5655067
  36.5183305  59.4865037  21.4015255  36.4036820  58.5850294  21.7022353
  35.6627823  59.7328734  21.0500071  43.5975143  67.4282777  23.0002755
  43.1538997  66.6419156  22.6823660  44.2592356  67.6161928  22.3346646
  38.3562264  68.9578579  17.5263434  38.9069689  68.8295642  16.7540428
  37.5173740  69.2573468  17.1758326  45.6956381  67.7085577  21.0284156
  45.6774856  68.5294458  20.5364426  46.6176301  67.5839652  21.2534298
  42.1529435  65.2229707  21.8707665  42.6857772  64.4617995  21.6406973
  41.6243516  64.9303359  22.6131819  45.3199130  50.3289773  17.4001307
  44.9763399  51.2191414  17.3240417  45.6878092  50.1391430  16.5370892
  33.3884980  62.6523303  10.2189909  34.2260202  63.0620311  10.0023616
  33.5663248  61.7122745  10.1890103  45.2849412  60.3198384   5.9073742
  44.7696036  61.0902988   6.1462129  45.0126721  59.6463520   6.5306803
  42.8696523  55.1648085  10.9658980  42.0138120  54.7754935  10.7864619
  43.2823475  55.2440045  10.1058766  44.3995670  52.6994428  15.3650540
  43.8960466  52.6624563  14.5518345  44.6926277  53.6087171  15.4247196
  40.6438556  52.7833158  14.3716722  41.5091553  52.5875966  14.0122611
  40.7116065  52.5543509  15.2986078  50.2583687  63.0730738   7.8426915
  49.4813129  62.7341898   7.3982077  50.9375168  63.0783362   7.1681880
  45.0735716  58.1925476   7.7333523  44.7685851  58.5071625   8.5843666
  46.0266158  58.2706896   7.7760856  43.5182147  64.3515699   9.3826477
  42.9903509  63.6168459   9.0699714  43.0169650  65.1290376   9.1366445
  48.4974993  62.5464720  14.4993523  47.8398668  63.2363981  14.5873652
  49.3015393  62.9361152  14.8427509  38.2500875  55.0135365  11.7433088
  38.8244627  54.7910547  11.0106281  38.8371858  55.0824060  12.4961690
  47.3080452  60.9009092  12.5497465  47.8212334  61.5339084  13.0519175
  47.9581676  60.3010288  12.1840825  38.5770462  57.0439826   5.7628974
  37.7407774  57.3814513   6.0838248  38.4375232  56.9088806   4.8256111
  40.5523543  51.8876614  10.4708158  39.8987955  51.5725632   9.8464773
  40.5104017  51.2652355  11.1967981  41.6634748  62.1695909   2.3861450
  40.7561809  61.9385163   2.5852599  42.1605780  61.3733529   2.5735431
  44.5702827  70.8793417   5.3058136  43.8964525  71.1825113   5.9143094
  44.9568648  71.6822497   4.9563593  43.7861283  58.3758548  14.7955805
  42.8683845  58.5973495  14.6377493  44.2021427  58.4504858  13.9367513
  44.5696331  59.7749964   9.9258486  45.3168150  60.2871361   9.6165608
  44.8387920  59.4534016  10.7862879  42.8422981  62.2708504   6.9085440
  41.9334200  61.9867537   7.0057910  42.8718065  62.6907583   6.0488747
  48.0742248  65.8815094  10.6776607  47.6204576  65.0406004  10.7341798
  47.4436215  66.5176492  11.0151388  47.0175168  56.8107080  11.9077275
  46.2797925  56.2984466  12.2387518  47.2701942  56.3707461  11.0960552
  46.5175188  67.7191590  11.6126426  46.8098162  68.2796648  10.8938791
  47.0273808  68.0120151  12.3679585  47.1186795  49.5883332  12.5019044
  47.4245672  48.7280695  12.2144959  47.8439400  50.1800952  12.3018038
  33.4111151  59.9914018  10.8900642  33.2135551  59.3983379  10.1651709
  32.8557815  59.6866229  11.6076581  41.3907875  59.8837125  13.0095235
  41.4456485  58.9310961  12.9337712  40.5799077  60.0396564  13.4936534
  42.5399069  63.8117248   4.2473519  42.1018499  63.0953107   3.7879156
  43.2809510  64.0393363   3.6858610  39.3300235  58.5014185  10.7685614
  38.5168101  58.8008355  11.1750806  39.8259229  58.1069873  11.4860096
  41.4808813  68.4971942  12.7019879  41.4384992  68.7232788  11.7728411
  42.3971512  68.2635316  12.8505680  44.9274447  58.9656009  19.6000508
  45.2823834  59.1927482  20.4594974  45.5746578  59.2974386  18.9777763
  50.6572184  62.0874445  10.3049837  50.5190082  62.2776041   9.3771026
  50.3008402  62.8493828  10.7617888  38.8214310  56.0732540  16.3846849
  39.4613689  55.9321299  15.6869812  37.9891840  55.7867054  16.0085451
  50.6841563  64.1550972  15.3161109  51.1178070  64.0626261  16.1644163
  51.3973144  64.1308472  14.6781125  39.5974614  65.3734971  12.4981842
  40.3915212  64.8785291  12.2964417  38.8866306  64.8452834  12.1349547
  44.4169458  67.7553066  16.8494209  44.4706480  68.3244002  17.6171925
  43.5484240  67.9254951  16.4848246  35.9057377  59.5178052   8.5741594
  34.9754965  59.4562508   8.7911556  36.0014849  58.9954005   7.7778235
  35.8242926  56.0432865  11.1619836  36.0849744  56.9578198  11.0528996
  36.6460099  55.5757308  11.3116449  37.2967852  57.4570622  18.3318660
  37.9690905  57.2487984  17.6831309  36.4697638  57.2592708  17.8923893
  51.5457113  64.1974673  17.8493994  51.7393003  65.1020483  18.0953269
  51.4457731  63.7382092  18.6832579  43.1993424  54.0832563  20.3484321
  42.5521339  54.7822513  20.2548798  43.9694439  54.5168707  20.7160570
  46.6072221  64.3481415  23.4234875  46.4557728  64.1191967  22.5064958
  46.5976901  65.3052017  23.4366220  43.3757558  61.9213328  18.4081141
  44.3049618  62.0724488  18.2350108  42.9548588  62.0097349  17.5529788
  42.1745890  65.9463993  16.1779679  42.0356975  65.5782777  17.0505617
  41.3860486  66.4611632  16.0063636  42.7694042  71.0473089   7.5205215
  42.9445797  70.5761132   8.3350838  42.0826830  71.6738855   7.7486476
  43.7251105  65.3245595  13.5668516  43.3900937  65.2846365  14.4626166
  43.2255051  64.6590311  13.0938927  37.6995349  60.7313225  19.0921098
  37.5615147  59.9993464  19.6932637  38.6100272  60.6422125  18.8105285
  46.6610296  62.6701630   3.8405576  46.0439467  61.9448458   3.7438629
  46.1926785  63.4310990   3.4972650  40.3277649  60.4433185  18.5804777
  41.0377268  59.8026377  18.5391396  40.2846958  60.6946079  19.5030958
  48.3164428  67.3800538  21.5011356  48.2576974  66.6959758  20.8341939
  48.7183947  68.1219528  21.0491982  39.0406583  57.4298403  20.4000417
  38.5043940  56.9789141  21.0522013  38.4523292  57.5644311  19.6570881
  37.3355127  74.1962452  14.2945075  37.5751725  74.8280976  14.9724094
  36.4924323  73.8450492  14.5810435  38.4508842  56.8887054   2.9626880
  37.5738309  56.7675855   2.5989127  38.9266595  56.0973132   2.7105769
  48.3181835  65.3440122  19.7325336  47.4308614  65.0066044  19.8551735
  48.8880386  64.6123153  19.9694102  29.9710983  61.6764214  13.0568388
  30.6582022  61.3625944  12.4689403  29.8159111  62.5805578  12.7835639
  34.7745705  56.5654410  17.4853411  34.6903893  55.9580080  16.7503821
  33.9528411  57.0563429  17.4862908  41.8482989  70.0041574  16.6986579
  41.7753160  70.8096546  17.2105884  41.4060382  70.2033540  15.8734601
  41.6372768  69.2413344  10.2089401  40.8540290  69.7835024  10.3027625
  42.3365514  69.7587324  10.6083642  44.9469419  55.0507974  12.8523606
  45.4438118  54.2977936  12.5324676  44.1756400  55.0872290  12.2866816
  52.7999176  60.7548339  14.4941898  52.7889052  61.6373055  14.1235831
  51.9316555  60.4019890  14.2996435  44.3081672  69.9028408  18.8544738
  45.0209645  70.5375873  18.7820639  43.8171701  69.9992274  18.0384740
  46.0299199  63.8079661  10.4262030  45.0955478  63.9281123  10.2566734
  46.2075868  62.9052128  10.1622039  41.5304387  57.1925357  12.5795291
  41.1602175  56.6396397  13.2676196  42.0263480  56.5883490  12.0270291
  49.4171751  59.6496980  10.9612064  49.8832203  60.4824972  10.8872366
  49.8679251  59.1841962  11.6657322  39.3593586  67.6522852  19.6750309
  40.0603045  68.2859335  19.8279703  38.8888701  67.9937583  18.9145948
  47.4847982  65.9940802   7.9598216  47.7607826  65.8797396   8.8692090
  46.6152480  65.5958286   7.9210389  47.3888413  52.0177567  15.0002965
  46.4751493  52.2481794  15.1685172  47.8181515  52.1016011  15.8516997
  47.1594872  60.2067459  17.5002859  46.5066322  60.4543367  16.8455312
  47.5375252  59.3931597  17.1665336  44.1202046  70.2427152  11.6031029
  44.3024440  69.4248808  12.0658782  44.9435032  70.4594845  11.1655919
  44.4544211  69.1695338   8.8646078  44.9831978  68.6587792   8.2516240
  44.7172431  68.8537868   9.7291611  43.2082445  60.9487270  23.9868896
  42.5323082  60.8481400  24.6571271  44.0310079  60.7926484  24.4504893
  34.9561304  67.1859207  16.6081411  35.5414741  66.4402895  16.7409316
  34.7586142  67.4963164  17.4918075  37.8099959  70.2210454  11.6243854
  37.1410334  70.7056582  11.1407894  37.6712829  70.4679675  12.5387232
  29.5478959  59.7564807  15.3285855  29.5863058  59.2228398  16.1222973
  29.0419251  59.2300013  14.7096832  41.9505228  72.2554198  18.2226512
  42.5023536  72.4185819  18.9875597  42.2911421  72.8458636  17.5506537
  36.9269721  54.6029348  18.8248397  36.9911047  55.4644178  18.4125795
  36.8636841  53.9903349  18.0920755  36.4021993  56.6752480  22.4721431
  37.0294032  56.2929557  23.0858956  35.5449912  56.4566682  22.8377124
  46.8016102  67.0815455  24.0775167  47.3456006  67.6945413  23.5830121
  46.2202947  67.6395034  24.5942180  33.1787536  58.4828909   8.4039786
  33.4740977  57.5739588   8.3506840  32.2775572  58.4616649   8.0820788
  45.0873615  70.2036173  15.2090194  44.9624754  69.4025913  14.7001140
  45.7452706  70.6982367  14.7204164  36.7081783  56.5584906  14.3867335
  35.9868369  57.1720873  14.2474808  37.4975039  57.0942671  14.3083981
  47.1508523  68.0045193  16.8369744  46.2038859  67.8850545  16.7648071
  47.4991297  67.1167691  16.9196006  39.5108097  53.8939332  20.6607986
  40.0342499  54.1401629  21.4234296  39.2920430  54.7259367  20.2411124
  34.9075378  56.1643007   8.5279111  34.5788084  55.2840386   8.3454217
  35.2614749  56.1090676   9.4155500  44.1554957  67.7997910  13.0374097
  44.0079919  66.8714617  13.2181667  44.9808450  67.8218000  12.5531172
  38.0217201  56.4515977   8.8954589  38.3613273  56.9801898   8.1733197
  38.4689321  56.7896383   9.6713155  47.7589079  68.6226468  14.1238969
  48.6835626  68.4169330  13.9863421  47.5904382  68.3742869  15.0328311
  40.7160642  54.8353027  18.3457657  40.3757462  54.0360840  18.7478337
  40.0099648  55.1354738  17.7734490  41.3677114  51.9202340  16.7984980
  42.1903183  51.4462818  16.6763870  41.6115177  52.6992824  17.2983666
  40.0085348  54.9490598   7.0947882  40.7293711  55.3271851   6.5911598
  39.3850652  55.6679475   7.1982860  44.1516471  55.6535747   8.0306214
  44.3680085  56.5360385   7.7295042  43.6710538  55.2621961   7.3011856
  38.8915692  58.6121460  14.6076959  38.7460273  58.9261763  15.5001240
  38.4140896  59.2306361  14.0547857  40.7512075  55.6024008  14.6557848
  40.7373644  54.7065102  14.3190146  41.4684503  55.6094672  15.2896134
  42.6038206  56.0361349  16.7010976  42.3455984  56.9578419  16.6995306
  42.0723246  55.6391783  17.3911440  47.5484395  69.1412136   9.4801061
  47.7221272  68.5758558   8.7274913  48.0413286  69.9413031   9.2980551
  33.3661355  61.1526805  17.5464620  32.8214823  61.9286613  17.6784894
  34.2440704  61.4997609  17.3883741  40.1548971  54.4838389   9.9245418
  40.2764882  53.5555035  10.1236306  39.8651014  54.4977075   9.0123734
  43.0240162  52.1693299  13.0612138  43.0461858  52.2332632  12.1064118
  43.4408221  51.3297808  13.2552644  53.4023786  61.9048559  11.0991361
  53.8454932  61.1555884  10.7010484  52.5250296  61.8958695  10.7165093
  48.5359567  68.4578900   6.5797959  49.2310472  69.0785593   6.7985274
  48.8782717  67.6074251   6.8550337  34.1527376  60.2796701  20.4394777
  33.4109112  60.4279336  21.0259407  33.8320121  60.5404967  19.5761526
  50.4350990  65.9078606   8.1085290  50.9602314  66.2465878   7.3834610
  50.3473343  64.9725621   7.9248425  42.0971039  69.8212679  20.2375167
  42.4058165  69.5761826  21.1097866  42.8946521  70.0259318  19.7494037
  42.1191651  71.9750589  12.4680543  41.6796641  71.4826968  13.1613400
  42.8699768  71.4323557  12.2272618  34.5983990  68.1662130  12.4705171
  35.4242010  67.8665902  12.0903815  34.2478042  67.3969752  12.9194960
  39.5665523  67.5188598  14.5402845  38.9445533  66.8559303  14.2405073
  40.2370390  67.5449730  13.8576493  32.7992595  66.0848456  13.4294105
  31.9624503  65.6570631  13.2478106  32.7716241  66.2780900  14.3664896
  39.6390051  55.9970386  24.1335351  39.6878206  56.8732509  23.7513120
  40.1812565  55.4547779  23.5606994  50.1244896  66.5411509  23.4136488
  49.3340440  66.5235648  22.8740987  49.8878251  67.0799803  24.1685525
  50.2442771  63.3903976  20.7269216  50.2940776  63.2253983  21.6684739
  50.1356695  62.5231235  20.3367097  39.1279030  66.0692521   8.0161305
  39.2767151  66.7527986   7.3627978  39.9345474  66.0497611   8.5310761
  47.5346534  59.3734904  22.0428523  48.4356397  59.2341369  21.7512521
  47.6094508  59.5389359  22.9826701  41.8689339  56.7501758  20.8881709
  40.9992649  57.0435325  20.6164298  42.1048820  57.3342203  21.6088973
  51.7460968  65.8100917  20.9711238  51.4545777  66.1730898  21.8074699
  51.1333100  65.0967925  20.7924570  52.9456651  63.3753797  13.4913808
  53.7803542  63.8143601  13.6551369  53.0815779  62.8992450  12.6722054
  49.9948157  60.9333532  19.4391296  50.4702278  61.1261178  18.6310147
  49.0713722  60.9892718  19.1934680  36.8831663  62.0957699   9.0222374
  36.6377705  61.1920029   9.2202584  37.0527578  62.0974849   8.0801852
  44.5728373  52.9681375  18.4047130  45.0910317  53.7042402  18.0793618
  44.2183506  53.2745369  19.2393889  36.1527311  57.8286057   6.5208536
  35.4596556  57.9030412   5.8648572  35.9079063  57.0646400   7.0430053
  44.8240967  49.3881658  13.9248026  45.1042721  48.7204847  14.5508453
  45.6091574  49.5810754  13.4122690  42.6274436  68.5640652   5.4873053
  42.0548403  69.1830839   5.0343525  43.2007229  69.1140014   6.0212975
  48.6949826  57.8099292  17.6719602  49.6467248  57.9097390  17.6931826
  48.5253276  57.0177560  18.1817686  46.7164205  54.8954875  17.8579003
  46.1214137  55.1759888  17.1625491  46.4313902  55.3848776  18.6295744
  45.8471695  68.8477802   6.6181635  46.7802369  68.7823364   6.8214511
  45.7594908  69.6834069   6.1596168  48.4759712  68.1643672   3.5785583
  48.3973344  67.8303536   4.4721341  49.2969379  68.6565440   3.5777055
  51.1737903  61.0305412  16.7861901  51.1414223  60.0921412  16.9721585
  51.7838527  61.1089448  16.0527726  43.0121234  59.9001465   2.8289105
  43.9580339  59.7707673   2.8977523  42.6335479  59.1616126   3.3058533
  51.3232392  57.8216455  16.8320184  50.8071440  57.0374912  16.6450113
  52.2072340  57.4935172  16.9966704  48.9843119  51.5657471  12.7915997
  48.7867940  51.2572559  13.6759329  49.5942824  52.2919110  12.9213927
  56.9914453  62.0921418  15.9267938  57.7217842  61.8306707  16.4875641
  56.3821399  61.3550140  15.9670006  55.0729750  60.2329281  16.5242389
  54.3462914  60.0985246  15.9158881  54.6577037  60.5406110  17.3299107
  42.8959927  63.9519211  24.2889762  43.8162936  64.1297810  24.4829809
  42.8609510  63.0075256  24.1369462  41.1964151  57.8251441   2.7643991
  40.2895607  57.5284554   2.8406704  41.4740132  57.5281259   1.8978277
  32.1142092  59.1457804  13.2143037  31.7944876  58.2923113  12.9217411
  31.5675520  59.3606383  13.9701004  35.8921999  61.8620245  16.9312543
  36.1108009  62.7937353  16.9500577  36.3047773  61.5028220  17.7167347
  42.8126217  52.3688331   8.9188232  42.0026945  52.0235416   9.2943478
  43.5010634  52.0595874   9.5075843  44.7416765  51.4466377  10.5412528
  45.2947804  51.8661831  11.2002552  44.9786852  50.5202126  10.5835484
  40.7649865  57.4353451  26.3215292  40.6646591  58.3847808  26.2527383
  40.5471407  57.1071690  25.4491362  39.9662936  54.6838376   2.9055970
  40.8282100  55.0093274   3.1651787  40.1513280  53.8969872   2.3929035
  31.9830352  62.7660716  15.1836158  31.2893823  62.3514669  14.6706113
  32.7303343  62.8081252  14.5869577  48.1195572  53.5566903  10.0491193
  47.5394241  54.2151707   9.6669245  47.8531505  52.7344247   9.6378610
  46.5699139  52.9571960  12.2512513  47.0698917  53.0688495  11.4426832
  47.2134747  52.6533013  12.8913321  40.6281135  60.8650590  25.1380354
  40.1448216  61.6650950  25.3444243  40.7142074  60.8758535  24.1847798
  33.8967094  62.6978970  13.0602173  33.8737782  62.7966657  12.1084056
  34.2067731  63.5444120  13.3819339  36.5554472  64.7555125  17.1748788
  37.5097726  64.7239067  17.1078719  36.3566996  64.2945748  17.9899014
  37.1453854  63.3256241  19.7419585  37.9646743  63.8200319  19.7654423
  37.4190662  62.4088209  19.7137153  46.9020450  55.7166993   9.1047541
  46.0146305  56.0016644   8.8867736  47.3174440  55.5560756   8.2574818
  50.2534987  55.7413514  12.8201880  51.0295377  56.2309966  13.0926497
  49.5283121  56.1671568  13.2773750  52.6907545  56.4541133  13.8775821
  53.2852036  56.2136869  13.1669129  52.7634129  55.7348264  14.5049357
  34.9104701  70.2974744  14.1918986  34.7759169  69.5375145  13.6256984
  34.4936763  71.0215644  13.7247775  46.0463664  65.4811668   3.1995561
  46.7499514  65.6861670   3.8153217  45.3226313  66.0488430   3.4644644
  46.8761474  61.2321529   9.3197831  46.8196676  61.6890080   8.4805464
  47.4289817  60.4712214   9.1420674  50.6866280  57.0211261  10.1447951
  50.4303214  56.6207896  10.9756158  50.0619148  57.7355055  10.0198090
  54.9978618  59.7607334  12.6519242  54.4378176  59.8300523  13.4250804
  54.3922121  59.5848319  11.9318738  38.0673827  71.1944061  14.4037428
  37.9506211  72.1389494  14.3016119  37.2466273  70.8917623  14.7923228
  47.9550361  65.9194197   5.2494021  48.7895965  65.4875395   5.0671496
  47.7934704  65.7476211   6.1770915  47.6096254  62.4226310   6.6150360
  47.5545057  62.2570582   5.6738804  46.9842309  63.1302343   6.7712550
  32.3988768  57.6594375  20.4411783  33.0447632  57.1493329  20.9299008
  32.1905920  58.3963056  21.0155208  44.9242161  64.7275222  25.9403923
  45.7933320  64.9015874  25.5790558  44.4448912  65.5469639  25.8179652
  40.9192379  51.9234419   6.1935679  40.9071049  52.8676259   6.3503950
  41.8115801  51.7404565   5.8995140  39.0928341  71.8472323  17.6193357
  39.9955588  71.8795933  17.9359852  38.8665711  70.9172774  17.6339693
  40.8481943  70.6003310  14.2803435  39.8977574  70.6005171  14.1667808
  41.1514429  69.8536044  13.7639470  44.7344498  48.5177196  10.4481615
  43.9676894  47.9635683  10.5938298  45.1455203  48.5899065  11.3095767
  36.7386259  54.8061992  24.5386797  37.6017721  54.4498796  24.7490121
  36.1651670  54.4675886  25.2262201  56.5834636  76.4363848  15.3449198
  57.2213046  76.3170595  14.6412538  56.4655479  77.3844692  15.4037150
  53.3924343  76.3891276  15.2810722  53.0542854  76.2732341  14.3931257
  54.2614111  75.9882441  15.2611729  49.2511158  78.2426753  11.2707613
  48.6876024  78.1516689  10.5023901  49.1363553  77.4226657  11.7510106
  53.8744126  77.5426128  21.2396928  53.8632766  77.1478926  20.3677432
  54.0364765  76.8092200  21.8330699  46.7975590  79.7377944  14.1091834
  47.5896882  79.3968769  13.6938133  47.0372240  79.8472919  15.0293987
  54.8310717  81.9097720   6.5822078  54.1798697  82.4951801   6.1956092
  55.6255080  82.4403915   6.6417116  48.7566344  78.9986857   6.9809213
  49.5297220  78.4515844   6.8422088  49.1091743  79.8631107   7.1923674
  50.5951387  80.3263240  20.1876112  50.3041253  81.2308870  20.0722778
  51.2308371  80.3679767  20.9020182  51.5207594  77.7040088  16.7777472
  52.1171166  77.4796111  16.0634435  51.5782565  76.9624834  17.3802919
  51.0932622  75.1579523   4.6127663  51.3458143  74.6361045   3.8511126
  50.1557181  74.9945669   4.7154346  56.1375905  74.1615302  12.4202406
  56.9238994  73.7434725  12.0692823  56.4014609  75.0661394  12.5884054
  56.3085982  79.5988152   7.1191063  55.6731815  79.6722779   7.8311967
  55.9783389  80.1881751   6.4410142  61.5384332  74.0990535  13.3235384
  62.2709504  73.5289752  13.5573214  60.7823688  73.7112135  13.7641890
  50.8128911  77.0607629   6.8152038  50.6965169  76.3852533   7.4833122
  50.9231171  76.5740003   5.9984191  53.1560452  76.5217777  10.5198727
  52.7918659  75.9948398  11.2311648  54.0127568  76.1316246  10.3465212
  59.0609752  67.8112109  17.7829993  58.7293077  68.6807520  17.5591208
  58.4655366  67.4948393  18.4624023  52.7965939  71.5507676   5.5160075
  52.9640341  72.4187913   5.8830546  52.6063108  71.7134958   4.5921365
  55.5541272  80.0124655  17.1825906  55.2541995  80.9149694  17.0741713
  55.2092331  79.7456838  18.0347059  49.0053753  76.4638452  13.2162610
  48.0804250  76.3314666  13.4240302  49.2538167  77.2432671  13.7132552
  58.9538416  72.5307195  14.8623343  58.0455293  72.4622604  14.5682104
  58.9026011  73.0079140  15.6905168  52.7755160  74.0065334   6.5006742
  52.6554785  74.4522385   7.3392222  52.0807748  74.3550651   5.9420280
  46.3662564  76.1071726  14.0506399  46.4954946  76.3606204  14.9645811
  45.6860016  76.6999434  13.7311054  50.5362052  86.7768975  10.1496873
  50.4586081  87.7276801  10.2285354  49.9323695  86.4314848  10.8071800
  53.0279281  73.9496841  22.8058240  52.2512616  74.5090761  22.7961105
  53.6669845  74.4353624  23.3273110  60.8200062  70.7323634  16.6401217
  60.1774442  71.0256167  15.9941011  60.3154991  70.6176554  17.4454414
  58.4740226  74.4786807   7.3287076  59.3858082  74.7114194   7.1534774
  57.9649873  75.0623851   6.7662155  51.2825654  76.7582294  22.3676207
  52.0240338  77.2967338  22.0911031  50.5762639  77.3848583  22.5247759
  56.7580993  78.9011435  20.9648369  57.1664349  78.4593845  20.2203001
  56.0358255  78.3264062  21.2182562  53.1112063  73.8384042  18.3381926
  53.9573259  74.2623455  18.4816575  53.0510701  73.1817666  19.0320489
  57.0809808  79.4612625  14.7200658  56.4518671  79.6258340  14.0176725
  56.6935470  79.8754235  15.4911622  60.9599040  80.3967063  12.0745021
  60.2750078  80.7765965  11.5242055  61.0442889  81.0062390  12.8076969
  56.2611509  71.4988410  19.9963099  56.0172441  72.2530470  19.4597375
  56.5371439  71.8773757  20.8310346  58.2149972  78.0427022  18.6740365
  58.4266867  78.6858782  17.9974746  58.1679720  77.2089339  18.2062295
  55.8176201  70.6544843  15.5776937  54.9560680  70.9526096  15.8693675
  55.8438635  70.8715242  14.6457970  52.6337770  79.1987033  11.9850743
  53.0976115  79.4774736  11.1955365  52.3694568  78.2970478  11.8023833
  49.5261851  78.7458515  14.9230506  50.0963208  79.1745783  14.2847990
  50.1169963  78.4641100  15.6214692  51.5706656  75.3210186   8.7940308
  52.2730699  75.7731229   9.2614234  51.2387285  74.6794005   9.4220201
  50.0187018  73.9121942  23.1691517  49.3885678  74.5938223  23.4026914
  49.9123105  73.8005024  22.2244655  45.3131990  73.5793738  14.0957441
  44.5231044  73.8351267  13.6197552  45.8043237  74.3942076  14.2009482
  59.3295800  80.9198978  16.8462722  60.1513243  80.5179165  16.5645404
  59.3258202  80.8167212  17.7978838  47.2646735  73.9438318  11.0540918
  46.4677899  74.0557012  11.5724414  47.0372328  74.2824970  10.1881809
  53.0952403  80.4683021  19.0023433  53.1596835  80.9303428  19.8381605
  52.3863327  79.8380386  19.1305743  43.5969693  73.8324229  16.5272432
  43.8477731  74.7171239  16.7930008  44.1329241  73.6528830  15.7547524
  67.4201793  77.2637726  13.1947694  66.6665501  76.6945124  13.0391698
  67.5549334  77.2300391  14.1418328  52.8100421  82.1351128   8.8702413
  52.6746095  82.9802664   9.2987261  53.3510233  82.3370406   8.1068347
  49.2967760  68.2142708  25.5316768  48.9034706  67.6608907  26.2064413
  50.1133901  68.5253287  25.9223286  46.2629818  79.6526566   9.4430338
  46.7754339  80.4469817   9.5935903  46.9152531  78.9552857   9.3763940
  48.0724703  82.7692323  11.5253091  48.2491331  83.6910287  11.3374075
  48.8681536  82.4550742  11.9547471  52.2135721  69.6300587  23.1237025
  52.9545435  70.2307741  23.0441487  52.4453644  68.8878225  22.5655067
  47.3577059  74.8156955  21.4015255  47.2430574  73.9142212  21.7022353
  46.5021577  75.0620651  21.0500071  54.4368897  82.7574695  23.0002755
  53.9932751  81.9711074  22.6823660  55.0986111  82.9453845  22.3346646
  49.1956018  84.2870497  17.5263434  49.7463443  84.1587560  16.7540428
  48.3567494  84.5865386  17.1758326  56.5350135  83.0377495  21.0284156
  56.5168610  83.8586376  20.5364426  57.4570055  82.9131570  21.2534298
  52.9923189  80.5521624  21.8707665  53.5251526  79.7909913  21.6406973
  52.4637270  80.2595276  22.6131819  56.1592884  65.6581690  17.4001307
  55.8157154  66.5483332  17.3240417  56.5271847  65.4683348  16.5370892
  44.2278735  77.9815221  10.2189909  45.0653957  78.3912229  10.0023616
  44.4057003  77.0414663  10.1890103  56.1243167  75.6490301   5.9073742
  55.6089790  76.4194906   6.1462129  55.8520475  74.9755438   6.5306803
  53.7090278  70.4940002  10.9658980  52.8531874  70.1046853  10.7864619
  54.1217230  70.5731963  10.1058766  55.2389425  68.0286345  15.3650540
  54.7354220  67.9916481  14.5518345  55.5320031  68.9379088  15.4247196
  51.4832310  68.1125075  14.3716722  52.3485307  67.9167884  14.0122611
  51.5509819  67.8835427  15.2986078  61.0977441  78.4022656   7.8426915
  60.3206884  78.0633816   7.3982077  61.7768922  78.4075279   7.1681880
  55.9129470  73.5217394   7.7333523  55.6079606  73.8363543   8.5843666
  56.8659912  73.5998813   7.7760856  54.3575902  79.6807617   9.3826477
  53.8297264  78.9460376   9.0699714  53.8563405  80.4582293   9.1366445
  59.3368748  77.8756637  14.4993523  58.6792422  78.5655899  14.5873652
  60.1409147  78.2653069  14.8427509  49.0894630  70.3427283  11.7433088
  49.6638381  70.1202465  11.0106281  49.6765612  70.4115978  12.4961690
  58.1474207  76.2301010  12.5497465  58.6606089  76.8631002  13.0519175
  58.7975431  75.6302206  12.1840825  49.4164217  72.3731744   5.7628974
  48.5801529  72.7106431   6.0838248  49.2768986  72.2380724   4.8256111
  51.3917297  67.2168532  10.4708158  50.7381710  66.9017549   9.8464773
  51.3497771  66.5944272  11.1967981  52.5028502  77.4987827   2.3861450
  51.5955564  77.2677081   2.5852599  52.9999534  76.7025446   2.5735431
  54.6255038  73.7050466  14.7955805  53.7077599  73.9265413  14.6377493
  55.0415181  73.7796776  13.9367513  55.4090085  75.1041881   9.9258486
  56.1561904  75.6163278   9.6165608  55.6781675  74.7825934  10.7862879
  53.6816736  77.6000422   6.9085440  52.7727955  77.3159455   7.0057910
  53.7111819  78.0199501   6.0488747  58.9136003  81.2107011  10.6776607
  58.4598330  80.3697921  10.7341798  58.2829970  81.8468410  11.0151388
  57.8568923  72.1398998  11.9077275  57.1191679  71.6276384  12.2387518
  58.1095696  71.6999379  11.0960552  57.3568942  83.0483508  11.6126426
  57.6491917  83.6088565  10.8938791  57.8667563  83.3412069  12.3679585
  57.9580550  64.9175250  12.5019044  58.2639427  64.0572613  12.2144959
  58.6833155  65.5092870  12.3018038  44.2504906  75.3205936  10.8900642
  44.0529306  74.7275297  10.1651709  43.6951570  75.0158146  11.6076581
  52.2301630  75.2129043  13.0095235  52.2850239  74.2602879  12.9337712
  51.4192832  75.3688482  13.4936534  50.1693990  73.8306102  10.7685614
  49.3561855  74.1300273  11.1750806  50.6652984  73.4361791  11.4860096
  52.3202567  83.8263859  12.7019879  52.2778746  84.0524706  11.7728411
  53.2365266  83.5927234  12.8505680  55.7668201  74.2947927  19.6000508
  56.1217589  74.5219400  20.4594974  56.4140332  74.6266304  18.9777763
  61.4965938  77.4166363  10.3049837  61.3583837  77.6067959   9.3771026
  61.1402157  78.1785746  10.7617888  49.6608064  71.4024458  16.3846849
  50.3007444  71.2613217  15.6869812  48.8285595  71.1158971  16.0085451
  61.5235318  79.4842890  15.3161109  61.9571824  79.3918179  16.1644163
  62.2366898  79.4600390  14.6781125  50.4368368  80.7026888  12.4981842
  51.2308967  80.2077208  12.2964417  49.7260061  80.1744751  12.1349547
  55.2563213  83.0844984  16.8494209  55.3100235  83.6535920  17.6171925
  54.3877994  83.2546869  16.4848246  46.7451132  74.8469970   8.5741594
  45.8148720  74.7854425   8.7911556  46.8408604  74.3245923   7.7778235
  46.6636681  71.3724783  11.1619836  46.9243498  72.2870116  11.0528996
  47.4853853  70.9049225  11.3116449  48.1361606  72.7862540  18.3318660
  48.8084659  72.5779902  17.6831309  47.3091393  72.5884626  17.8923893
  62.3850867  79.5266590  17.8493994  62.5786757  80.4312401  18.0953269
  62.2851485  79.0674009  18.6832579  54.0387178  69.4124481  20.3484321
  53.3915093  70.1114431  20.2548798  54.8088193  69.8460625  20.7160570
  57.4465976  79.6773333  23.4234875  57.2951482  79.4483885  22.5064958
  57.4370655  80.6343935  23.4366220  54.2151312  77.2505246  18.4081141
  55.1443372  77.4016405  18.2350108  53.7942342  77.3389267  17.5529788
  53.0139644  81.2755910  16.1779679  52.8750730  80.9074695  17.0505617
  52.2254240  81.7903550  16.0063636  54.5644859  80.6537513  13.5668516
  54.2294692  80.6138283  14.4626166  54.0648805  79.9882229  13.0938927
  48.5389103  76.0605143  19.0921098  48.4008901  75.3285382  19.6932637
  49.4494027  75.9714043  18.8105285  51.1671404  75.7725102  18.5804777
  51.8771022  75.1318295  18.5391396  51.1240712  76.0237997  19.5030958
  59.1558183  82.7092456  21.5011356  59.0970729  82.0251676  20.8341939
  59.5577701  83.4511446  21.0491982  49.8800338  72.7590320  20.4000417
  49.3437695  72.3081059  21.0522013  49.2917046  72.8936229  19.6570881
  48.1748881  89.5254369  14.2945075  48.4145480  90.1572894  14.9724094
  47.3318078  89.1742410  14.5810435  49.2902597  72.2178972   2.9626880
  48.4132063  72.0967772   2.5989127  49.7660350  71.4265050   2.7105769
  59.1575590  80.6732040  19.7325336  58.2702369  80.3357961  19.8551735
  59.7274141  79.9415071  19.9694102  40.8104737  77.0056131  13.0568388
  41.4975777  76.6917861  12.4689403  40.6552866  77.9097496  12.7835639
  45.6139459  71.8946328  17.4853411  45.5297648  71.2871997  16.7503821
  44.7922166  72.3855346  17.4862908  52.6876743  85.3333492  16.6986579
  52.6146915  86.1388463  17.2105884  52.2454136  85.5325458  15.8734601
  52.4766523  84.5705262  10.2089401  51.6934045  85.1126942  10.3027625
  53.1759268  85.0879242  10.6083642  55.7863173  70.3799891  12.8523606
  56.2831873  69.6269854  12.5324676  55.0150155  70.4164208  12.2866816
  63.6392930  76.0840257  14.4941898  63.6282807  76.9664972  14.1235831
  62.7710310  75.7311808  14.2996435  55.1475427  85.2320326  18.8544738
  55.8603399  85.8667791  18.7820639  54.6565455  85.3284192  18.0384740
  56.8692954  79.1371579  10.4262030  55.9349232  79.2573041  10.2566734
  57.0469622  78.2344045  10.1622039  52.3698142  72.5217274  12.5795291
  51.9995929  71.9688315  13.2676196  52.8657234  71.9175408  12.0270291
  60.2565505  74.9788898  10.9612064  60.7225957  75.8116890  10.8872366
  60.7073006  74.5133879  11.6657322  50.1987340  82.9814769  19.6750309
  50.8996800  83.6151252  19.8279703  49.7282455  83.3229501  18.9145948
  58.3241736  81.3232719   7.9598216  58.6001580  81.2089314   8.8692090
  57.4546235  80.9250204   7.9210389  58.2282168  67.3469485  15.0002965
  57.3145248  67.5773712  15.1685172  58.6575269  67.4307929  15.8516997
  57.9988626  75.5359377  17.5002859  57.3460077  75.7835284  16.8455312
  58.3769006  74.7223515  17.1665336  54.9595800  85.5719070  11.6031029
  55.1418195  84.7540726  12.0658782  55.7828786  85.7886762  11.1655919
  55.2937966  84.4987255   8.8646078  55.8225732  83.9879710   8.2516240
  55.5566185  84.1829785   9.7291611  54.0476199  76.2779188  23.9868896
  53.3716836  76.1773317  24.6571271  54.8703833  76.1218402  24.4504893
  45.7955058  82.5151124  16.6081411  46.3808495  81.7694812  16.7409316
  45.5979897  82.8255081  17.4918075  48.6493714  85.5502372  11.6243854
  47.9804089  86.0348499  11.1407894  48.5106583  85.7971592  12.5387232
  40.3872713  75.0856725  15.3285855  40.4256813  74.5520315  16.1222973
  39.8813006  74.5591930  14.7096832  52.7898982  87.5846115  18.2226512
  53.3417290  87.7477737  18.9875597  53.1305176  88.1750553  17.5506537
  47.7663475  69.9321265  18.8248397  47.8304802  70.7936096  18.4125795
  47.7030596  69.3195267  18.0920755  47.2415748  72.0044398  22.4721431
  47.8687787  71.6221475  23.0858956  46.3843667  71.7858600  22.8377124
  57.6409857  82.4107373  24.0775167  58.1849761  83.0237331  23.5830121
  57.0596701  82.9686951  24.5942180  44.0181291  73.8120827   8.4039786
  44.3134732  72.9031505   8.3506840  43.1169326  73.7908566   8.0820788
  55.9267369  85.5328091  15.2090194  55.8018509  84.7317831  14.7001140
  56.5846461  86.0274284  14.7204164  47.5475538  71.8876823  14.3867335
  46.8262123  72.5012791  14.2474808  48.3368793  72.4234588  14.3083981
  57.9902278  83.3337111  16.8369744  57.0432613  83.2142462  16.7648071
  58.3385051  82.4459609  16.9196006  50.3501851  69.2231250  20.6607986
  50.8736253  69.4693546  21.4234296  50.1314185  70.0551285  20.2411124
  45.7469132  71.4934924   8.5279111  45.4181838  70.6132303   8.3454217
  46.1008503  71.4382593   9.4155500  54.9948711  83.1289827  13.0374097
  54.8473674  82.2006535  13.2181667  55.8202205  83.1509918  12.5531172
  48.8610955  71.7807894   8.8954589  49.2007028  72.3093816   8.1733197
  49.3083076  72.1188300   9.6713155  58.5982833  83.9518386  14.1238969
  59.5229380  83.7461247  13.9863421  58.4298136  83.7034787  15.0328311
  51.5554396  70.1644945  18.3457657  51.2151217  69.3652758  18.7478337
  50.8493403  70.4646656  17.7734490  52.2070868  67.2494257  16.7984980
  53.0296937  66.7754736  16.6763870  52.4508932  68.0284741  17.2983666
  50.8479103  70.2782516   7.0947882  51.5687465  70.6563769   6.5911598
  50.2244407  70.9971393   7.1982860  54.9910225  70.9827665   8.0306214
  55.2073840  71.8652303   7.7295042  54.5104293  70.5913878   7.3011856
  49.7309447  73.9413378  14.6076959  49.5854028  74.2553681  15.5001240
  49.2534651  74.5598278  14.0547857  51.5905830  70.9315926  14.6557848
  51.5767399  70.0357019  14.3190146  52.3078258  70.9386590  15.2896134
  53.4431960  71.3653266  16.7010976  53.1849738  72.2870337  16.6995306
  52.9117001  70.9683701  17.3911440  58.3878149  84.4704053   9.4801061
  58.5615027  83.9050476   8.7274913  58.8807040  85.2704948   9.2980551
  44.2055109  76.4818722  17.5464620  43.6608577  77.2578530  17.6784894
  45.0834459  76.8289527  17.3883741  50.9942726  69.8130306   9.9245418
  51.1158637  68.8846953  10.1236306  50.7044768  69.8268992   9.0123734
  53.8633916  67.4985217  13.0612138  53.8855613  67.5624550  12.1064118
  54.2801975  66.6589725  13.2552644  64.2417540  77.2340476  11.0991361
  64.6848686  76.4847802  10.7010484  63.3644051  77.2250613  10.7165093
  44.9921131  75.6088619  20.4394777  44.2502867  75.7571254  21.0259407
  44.6713875  75.8696884  19.5761526  52.9364794  85.1504597  20.2375167
  53.2451920  84.9053744  21.1097866  53.7340276  85.3551235  19.7494037
  52.9585406  87.3042507  12.4680543  52.5190396  86.8118885  13.1613400
  53.7093523  86.7615474  12.2272618  45.4377745  83.4954047  12.4705171
  46.2635764  83.1957819  12.0903815  45.0871797  82.7261670  12.9194960
  50.4059278  82.8480516  14.5402845  49.7839287  82.1851221  14.2405073
  51.0764145  82.8741648  13.8576493  43.6386350  81.4140374  13.4294105
  42.8018258  80.9862548  13.2478106  43.6109995  81.6072817  14.3664896
  50.4783805  71.3262304  24.1335351  50.5271961  72.2024427  23.7513120
  51.0206319  70.7839697  23.5606994  60.9638651  81.8703427  23.4136488
  60.1734195  81.8527566  22.8740987  60.7272005  82.4091721  24.1685525
  61.0836526  78.7195893  20.7269216  61.1334531  78.5545901  21.6684739
  60.9750449  77.8523152  20.3367097  49.9672785  81.3984439   8.0161305
  50.1160905  82.0819903   7.3627978  50.7739228  81.3789529   8.5310761
  58.3740288  74.7026821  22.0428523  59.2750151  74.5633286  21.7512521
  58.4488263  74.8681276  22.9826701  52.7083094  72.0793676  20.8881709
  51.8386403  72.3727242  20.6164298  52.9442574  72.6634121  21.6088973
  62.5854723  81.1392835  20.9711238  62.2939531  81.5022815  21.8074699
  61.9726854  80.4259843  20.7924570  63.7850405  78.7045715  13.4913808
  64.6197296  79.1435519  13.6551369  63.9209534  78.2284368  12.6722054
  60.8341911  76.2625449  19.4391296  61.3096033  76.4553096  18.6310147
  59.9107476  76.3184635  19.1934680  47.7225418  77.4249617   9.0222374
  47.4771460  76.5211947   9.2202584  47.8921332  77.4266767   8.0801852
  55.4122128  68.2973293  18.4047130  55.9304071  69.0334320  18.0793618
  55.0577260  68.6037286  19.2393889  46.9921065  73.1577974   6.5208536
  46.2990310  73.2322329   5.8648572  46.7472817  72.3938318   7.0430053
  55.6634722  64.7173576  13.9248026  55.9436475  64.0496765  14.5508453
  56.4485329  64.9102671  13.4122690  59.5343580  73.1391210  17.6719602
  60.4861003  73.2389307  17.6931826  59.3647030  72.3469478  18.1817686
  57.5557959  70.2246793  17.8579003  56.9607892  70.5051806  17.1625491
  57.2707656  70.7140694  18.6295744  62.0131658  76.3597329  16.7861901
  61.9807978  75.4213330  16.9721585  62.6232281  76.4381366  16.0527726
  53.8514989  75.2293382   2.8289105  54.7974093  75.0999590   2.8977523
  53.4729234  74.4908044   3.3058533  62.1626146  73.1508373  16.8320184
  61.6465195  72.3666829  16.6450113  63.0466095  72.8227089  16.9966704
  59.8236873  66.8949388  12.7915997  59.6261694  66.5864476  13.6759329
  60.4336579  67.6211027  12.9213927  67.8308208  77.4213336  15.9267938
  68.5611596  77.1598624  16.4875641  67.2215153  76.6842058  15.9670006
  65.9123505  75.5621199  16.5242389  65.1856668  75.4277164  15.9158881
  65.4970792  75.8698027  17.3299107  53.7353681  79.2811128  24.2889762
  54.6556691  79.4589727  24.4829809  53.7003264  78.3367174  24.1369462
  52.0357906  73.1543359   2.7643991  51.1289361  72.8576471   2.8406704
  52.3133887  72.8573177   1.8978277  42.9535846  74.4749722  13.2143037
  42.6338631  73.6215030  12.9217411  42.4069274  74.6898300  13.9701004
  46.7315754  77.1912163  16.9312543  46.9501764  78.1229271  16.9500577
  47.1441528  76.8320137  17.7167347  53.6519972  67.6980248   8.9188232
  52.8420700  67.3527333   9.2943478  54.3404388  67.3887792   9.5075843
  55.5810520  66.7758295  10.5412528  56.1341558  67.1953749  11.2002552
  55.8180606  65.8494043  10.5835484  51.6043619  72.7645369  26.3215292
  51.5040346  73.7139726  26.2527383  51.3865161  72.4363608  25.4491362
  50.8056690  70.0130294   2.9055970  51.6675854  70.3385192   3.1651787
  50.9907035  69.2261790   2.3929035  42.8224106  78.0952634  15.1836158
  42.1287578  77.6806586  14.6706113  43.5697097  78.1373170  14.5869577
  58.9589327  68.8858820  10.0491193  58.3787996  69.5443624   9.6669245
  58.6925260  68.0636165   9.6378610  57.4092893  68.2863878  12.2512513
  57.9092672  68.3980413  11.4426832  58.0528501  67.9824931  12.8913321
  51.4674889  76.1942508  25.1380354  50.9841971  76.9942868  25.3444243
  51.5535828  76.2050452  24.1847798  44.7360849  78.0270887  13.0602173
  44.7131537  78.1258575  12.1084056  45.0461485  78.8736038  13.3819339
  47.3948227  80.0847042  17.1748788  48.3491480  80.0530985  17.1078719
  47.1960750  79.6237666  17.9899014  47.9847609  78.6548158  19.7419585
  48.8040498  79.1492237  19.7654423  48.2584416  77.7380127  19.7137153
  57.7414205  71.0458911   9.1047541  56.8540060  71.3308561   8.8867736
  58.1568194  70.8852674   8.2574818  61.0928741  71.0705432  12.8201880
  61.8689131  71.5601884  13.0926497  60.3676875  71.4963486  13.2773750
  63.5301300  71.7833051  13.8775821  64.1245791  71.5428787  13.1669129
  63.6027883  71.0640181  14.5049357  45.7498455  85.6266662  14.1918986
  45.6152923  84.8667063  13.6256984  45.3330518  86.3507562  13.7247775
  57.7155229  76.5613447   9.3197831  57.6590430  77.0181998   8.4805464
  58.2683571  75.8004131   9.1420674  61.5260035  72.3503178  10.1447951
  61.2696969  71.9499814  10.9756158  60.9012903  73.0646972  10.0198090
  65.8372372  75.0899252  12.6519242  65.2771930  75.1592441  13.4250804
  65.2315876  74.9140236  11.9318738  48.9067581  86.5235979  14.4037428
  48.7899965  87.4681411  14.3016119  48.0860028  86.2209540  14.7923228
  58.4490008  77.7518228   6.6150360  58.3938812  77.5862499   5.6738804
  57.8236063  78.4594261   6.7712550  43.2382523  72.9886292  20.4411783
  43.8841387  72.4785246  20.9299008  43.0299674  73.7254974  21.0155208
  55.7635915  80.0567140  25.9403923  56.6327075  80.2307792  25.5790558
  55.2842667  80.8761557  25.8179652  51.7586133  67.2526337   6.1935679
  51.7464803  68.1968177   6.3503950  52.6509555  67.0696482   5.8995140
  49.9322095  87.1764241  17.6193357  50.8349342  87.2087851  17.9359852
  49.7059465  86.2464692  17.6339693  51.6875697  85.9295227  14.2803435
  50.7371328  85.9297089  14.1667808  51.9908184  85.1827962  13.7639470
  55.5738253  63.8469114  10.4481615  54.8070649  63.2927600  10.5938298
  55.9848958  63.9190982  11.3095767  47.5780014  70.1353909  24.5386797
  48.4411476  69.7790714  24.7490121  47.0045425  69.7967804  25.2262201
  64.7137880  92.8718046  21.2396928  64.7026521  92.4770844  20.3677432
  64.8758520  92.1384118  21.8330699  61.4345141  95.6555157  20.1876112
  61.1435007  96.5600788  20.0722778  62.0702126  95.6971685  20.9020182
  62.3601348  93.0332006  16.7777472  62.9564920  92.8088028  16.0634435
  62.4176320  92.2916751  17.3802919  69.9003507  83.1404027  17.7829993
  69.5686832  84.0099438  17.5591208  69.3049120  82.8240311  18.4624023
  57.2056319  91.4363643  14.0506399  57.3348700  91.6898122  14.9645811
  56.5253770  92.0291351  13.7311054  63.8673036  89.2788759  22.8058240
  63.0906370  89.8382679  22.7961105  64.5063599  89.7645542  23.3273110
  71.6593817  86.0615551  16.6401217  71.0168197  86.3548085  15.9941011
  71.1548745  85.9468472  17.4454414  62.1219408  92.0874212  22.3676207
  62.8634093  92.6259256  22.0911031  61.4156394  92.7140501  22.5247759
  67.5974748  94.2303352  20.9648369  68.0058104  93.7885763  20.2203001
  66.8752009  93.6555980  21.2182562  63.9505818  89.1675959  18.3381926
  64.7967013  89.5915373  18.4816575  63.8904456  88.5109584  19.0320489
  67.1005263  86.8280328  19.9963099  66.8566195  87.5822388  19.4597375
  67.3765194  87.2065675  20.8310346  66.6569955  85.9836761  15.5776937
  65.7954434  86.2818014  15.8693675  66.6832390  86.2007159  14.6457970
  60.8580772  89.2413860  23.1691517  60.2279433  89.9230141  23.4026914
  60.7516860  89.1296942  22.2244655  56.1525744  88.9085656  14.0957441
  55.3624798  89.1643185  13.6197552  56.6436992  89.7233994  14.2009482
  63.9346157  95.7974939  19.0023433  63.9990590  96.2595346  19.8381605
  63.2257081  95.1672304  19.1305743  54.4363447  89.1616147  16.5272432
  54.6871486  90.0463157  16.7930008  54.9722996  88.9820748  15.7547524
  60.1361515  83.5434626  25.5316768  59.7428460  82.9900825  26.2064413
  60.9527655  83.8545204  25.9223286  63.0529476  84.9592505  23.1237025
  63.7939189  85.5599658  23.0441487  63.2847399  84.2170143  22.5655067
  58.1970814  90.1448872  21.4015255  58.0824329  89.2434130  21.7022353
  57.3415332  90.3912569  21.0500071  65.2762652  98.0866613  23.0002755
  64.8326506  97.3002991  22.6823660  65.9379865  98.2745763  22.3346646
  63.8316944  95.8813542  21.8707665  64.3645281  95.1201830  21.6406973
  63.3031025  95.5887194  22.6131819  66.9986639  80.9873608  17.4001307
  66.6550908  81.8775250  17.3240417  67.3665601  80.7975266  16.5370892
  66.0783179  83.3578263  15.3650540  65.5747975  83.3208398  14.5518345
  66.3713786  84.2671006  15.4247196  62.3226065  83.4416993  14.3716722
  63.1879062  83.2459802  14.0122611  62.3903574  83.2127345  15.2986078
  59.9288384  85.6719201  11.7433088  60.5032136  85.4494382  11.0106281
  60.5159366  85.7407895  12.4961690  62.2311052  82.5460450  10.4708158
  61.5775464  82.2309467   9.8464773  62.1891526  81.9236190  11.1967981
  68.7974304  80.2467167  12.5019044  69.1033181  79.3864531  12.2144959
  69.5226909  80.8384787  12.3018038  66.6061956  89.6239844  19.6000508
  66.9611343  89.8511318  20.4594974  67.2534087  89.9558221  18.9777763
  60.5001819  86.7316376  16.3846849  61.1401198  86.5905135  15.6869812
  59.6679349  86.4450889  16.0085451  57.5030435  86.7016701  11.1619836
  57.7637252  87.6162034  11.0528996  58.3247608  86.2341143  11.3116449
  58.9755361  88.1154458  18.3318660  59.6478414  87.9071820  17.6831309
  58.1485147  87.9176544  17.8923893  64.8780933  84.7416399  20.3484321
  64.2308848  85.4406348  20.2548798  65.6481948  85.1752543  20.7160570
  68.2859730  95.0065251  23.4234875  68.1345237  94.7775802  22.5064958
  68.2764410  95.9635852  23.4366220  65.0545067  92.5797164  18.4081141
  65.9837127  92.7308323  18.2350108  64.6336097  92.6681184  17.5529788
  59.3782858  91.3897061  19.0921098  59.2402656  90.6577299  19.6932637
  60.2887781  91.3005961  18.8105285  62.0065158  91.1017020  18.5804777
  62.7164777  90.4610212  18.5391396  61.9634467  91.3529915  19.5030958
  60.7194092  88.0882238  20.4000417  60.1831449  87.6372976  21.0522013
  60.1310801  88.2228147  19.6570881  51.6498492  92.3348049  13.0568388
  52.3369531  92.0209779  12.4689403  51.4946620  93.2389414  12.7835639
  56.4533214  87.2238246  17.4853411  56.3691402  86.6163915  16.7503821
  55.6315920  87.7147264  17.4862908  66.6256928  85.7091809  12.8523606
  67.1225627  84.9561771  12.5324676  65.8543909  85.7456126  12.2866816
  61.0381095  98.3106687  19.6750309  61.7390554  98.9443170  19.8279703
  60.5676210  98.6521419  18.9145948  69.0675922  82.6761403  15.0002965
  68.1539002  82.9065629  15.1685172  69.4969024  82.7599847  15.8516997
  68.8382381  90.8651295  17.5002859  68.1853831  91.1127202  16.8455312
  69.2162761  90.0515433  17.1665336  64.8869954  91.6071106  23.9868896
  64.2110591  91.5065235  24.6571271  65.7097588  91.4510319  24.4504893
  56.6348813  97.8443042  16.6081411  57.2202250  97.0986730  16.7409316
  56.4373651  98.1546999  17.4918075  51.2266468  90.4148642  15.3285855
  51.2650567  89.8812233  16.1222973  50.7206760  89.8883848  14.7096832
  58.6057230  85.2613183  18.8248397  58.6698556  86.1228014  18.4125795
  58.5424350  84.6487185  18.0920755  58.0809502  87.3336315  22.4721431
  58.7081541  86.9513393  23.0858956  57.2237421  87.1150517  22.8377124
  68.4803611  97.7399291  24.0775167  69.0243515  98.3529249  23.5830121
  67.8990456  98.2978869  24.5942180  58.3869292  87.2168741  14.3867335
  57.6655878  87.8304709  14.2474808  59.1762548  87.7526506  14.3083981
  61.1895606  84.5523168  20.6607986  61.7130008  84.7985464  21.4234296
  60.9707939  85.3843202  20.2411124  62.3948151  85.4936863  18.3457657
  62.0544971  84.6944676  18.7478337  61.6887157  85.7938574  17.7734490
  63.0464623  82.5786175  16.7984980  63.8690692  82.1046653  16.6763870
  63.2902686  83.3576659  17.2983666  60.5703201  89.2705296  14.6076959
  60.4247782  89.5845599  15.5001240  60.0928405  89.8890196  14.0547857
  62.4299584  86.2607844  14.6557848  62.4161153  85.3648937  14.3190146
  63.1472012  86.2678507  15.2896134  64.2825715  86.6945184  16.7010976
  64.0243493  87.6162255  16.6995306  63.7510755  86.2975618  17.3911440
  55.0448864  91.8110640  17.5464620  54.5002332  92.5870448  17.6784894
  55.9228213  92.1581445  17.3883741  64.7027671  82.8277134  13.0612138
  64.7249367  82.8916468  12.1064118  65.1195730  81.9881643  13.2552644
  55.8314885  90.9380536  20.4394777  55.0896621  91.0863172  21.0259407
  55.5107630  91.1988802  19.5761526  61.3177560  86.6554221  24.1335351
  61.3665715  87.5316344  23.7513120  61.8600074  86.1131614  23.5606994
  71.8032405  97.1995345  23.4136488  71.0127949  97.1819483  22.8740987
  71.5665760  97.7383638  24.1685525  71.9230280  94.0487811  20.7269216
  71.9728285  93.8837818  21.6684739  71.8144204  93.1815070  20.3367097
  69.2134043  90.0318739  22.0428523  70.1143906  89.8925204  21.7512521
  69.2882017  90.1973194  22.9826701  63.5476848  87.4085594  20.8881709
  62.6780158  87.7019160  20.6164298  63.7836329  87.9926039  21.6088973
  71.6735666  91.5917367  19.4391296  72.1489787  91.7845013  18.6310147
  70.7501231  91.6476553  19.1934680  66.2515882  83.6265211  18.4047130
  66.7697826  84.3626238  18.0793618  65.8971015  83.9329204  19.2393889
  66.5028476  80.0465493  13.9248026  66.7830230  79.3788682  14.5508453
  67.2879083  80.2394589  13.4122690  70.3737335  88.4683127  17.6719602
  71.3254757  88.5681225  17.6931826  70.2040785  87.6761396  18.1817686
  68.3951714  85.5538710  17.8579003  67.8001646  85.8343723  17.1625491
  68.1101411  86.0432611  18.6295744  73.0019901  88.4800290  16.8320184
  72.4858949  87.6958747  16.6450113  73.8859849  88.1519007  16.9966704
  70.6630628  82.2241306  12.7915997  70.4655449  81.9156394  13.6759329
  71.2730333  82.9502945  12.9213927  64.5747436  94.6103046  24.2889762
  65.4950445  94.7881645  24.4829809  64.5397019  93.6659091  24.1369462
  53.7929601  89.8041640  13.2143037  53.4732385  88.9506948  12.9217411
  53.2463029  90.0190218  13.9701004  57.5709508  92.5204081  16.9312543
  57.7895518  93.4521189  16.9500577  57.9835282  92.1612055  17.7167347
  66.4204274  82.1050213  10.5412528  66.9735313  82.5245666  11.2002552
  66.6574361  81.1785961  10.5835484  62.4437374  88.0937286  26.3215292
  62.3434100  89.0431643  26.2527383  62.2258916  87.7655525  25.4491362
  53.6617861  93.4244551  15.1836158  52.9681332  93.0098504  14.6706113
  54.4090852  93.4665088  14.5869577  62.3068644  91.5234425  25.1380354
  61.8235725  92.3234785  25.3444243  62.3929583  91.5342370  24.1847798
  58.2341981  95.4138960  17.1748788  59.1885235  95.3822902  17.1078719
  58.0354505  94.9529584  17.9899014  58.8241363  93.9840076  19.7419585
  59.6434252  94.4784155  19.7654423  59.0978171  93.0672044  19.7137153
  54.0776277  88.3178210  20.4411783  54.7235141  87.8077164  20.9299008
  53.8693429  89.0546892  21.0155208  66.6029670  95.3859057  25.9403923
  67.4720829  95.5599710  25.5790558  66.1236421  96.2053474  25.8179652
  66.4132007  79.1761031  10.4481615  65.6464403  78.6219518  10.5938298
  66.8242712  79.2482900  11.3095767  58.4173768  85.4645827  24.5386797
  59.2805230  85.1082632  24.7490121  57.8439179  85.1259722  25.2262201
  70.9755269  98.8726544  25.5316768  70.5822215  98.3192742  26.2064413
  71.7921410  99.1837122  25.9223286  73.2831128 103.4229204  26.3215292
  73.1827855 104.3723561  26.2527383  73.0652670 103.0947443  25.4491362
  69.2567523 100.7937745  24.5386797  70.1198985 100.4374550  24.7490121
  68.6832934 100.4551639  25.2262201  35.9622349  28.7585660  10.8020473
  36.5062253  29.3715618  10.3075428  35.3809194  29.3165239  11.3187486
  39.2851143  28.2181714  10.1381795  38.4946687  28.2005853   9.5986294
  39.0484498  28.7570008  10.8930831  34.0848407  26.4045427  12.6649230
  34.9539567  26.5786079  12.3035865  33.6055159  27.2239844  12.5424959
  45.7440883  38.1134053   2.0694504  46.3819293  37.9940800   1.3657844
  45.6261726  39.0614897   2.1282457  43.0350372  39.2196333   7.9642235
  43.0239013  38.8249131   7.0922738  43.1971012  38.4862405   8.5576006
  39.7557634  42.0033445   6.9121419  39.4647500  42.9079075   6.7968085
  40.3914618  42.0449972   7.6265488  40.6813840  39.3810293   3.5022778
  41.2777413  39.1566315   2.7879741  40.7388812  38.6395039   4.1048226
  44.7147519  41.6894860   3.9071212  44.4148242  42.5919899   3.7987019
  44.3698578  41.4227043   4.7592365  42.1885528  35.6267046   9.5303547
  41.4118862  36.1860966   9.5206412  42.8276091  36.1123829  10.0518417
  49.9806309  32.4093839   3.3646524  49.3380689  32.7026372   2.7186318
  49.4761237  32.2946759   4.1699720  40.4431901  38.4352499   9.0921514
  41.1846585  38.9737543   8.8156337  39.7368886  39.0618788   9.2493066
  45.9187240  40.5781640   7.6893675  46.3270596  40.1364050   6.9448308
  45.1964502  40.0034267   7.9427868  42.2718310  35.5154246   5.0627232
  43.1179505  35.9393660   5.2061881  42.2116948  34.8587871   5.7565795
  46.2416055  41.1382830   1.4445964  45.6124917  41.3028544   0.7422032
  45.8541717  41.5524440   2.2156928  50.1205287  42.0737268  -1.2009672
  49.4356325  42.4536169  -1.7512639  50.2049136  42.6832595  -0.4677724
  45.4217756  33.1758615   6.7208406  45.1778687  33.9300675   6.1842682
  45.6977686  33.5543962   7.5555653  47.3756218  39.7197227   5.3985672
  47.5873114  40.3628987   4.7220053  47.3285967  38.8859544   4.9307602
  39.1793264  35.5892147   9.8936824  38.5491925  36.2708428  10.1272221
  39.0729352  35.4775229   8.9489962  48.4902046  42.5969183   3.5708029
  49.3119490  42.1949370   3.2890710  48.4864449  42.4937417   4.5224145
  42.2558650  42.1453226   5.7268739  42.3203082  42.6073633   6.5626911
  41.5469574  41.5150591   5.8551049  56.5808039  38.9407931  -0.0807000
  55.8271748  38.3715329  -0.2362995  56.7155581  38.9070596   0.8663635
  38.4574007  29.8912913  12.2562075  38.0640953  29.3379112  12.9309719
  39.2740147  30.2023492  12.6468592  41.3741968  31.3070792   9.8482331
  42.1151681  31.9077945   9.7686794  41.6059891  30.5648430   9.2900374
  36.5183306  36.4927160   8.1260561  36.4036821  35.5912417   8.4267660
  35.6627824  36.7390856   7.7745378  43.5975144  44.4344900   9.7248062
  43.1538998  43.6481278   9.4068966  44.2592357  44.6224050   9.0591953
  38.3562265  45.9640701   4.2508740  38.9069690  45.8357765   3.4785734
  37.5173741  46.2635590   3.9003633  45.6956382  44.7147700   7.7529463
  45.6774857  45.5356581   7.2609732  46.6176302  44.5901775   7.9779604
  42.1529436  42.2291829   8.5952971  42.6857773  41.4680117   8.3652279
  41.6243517  41.9365481   9.3377126  48.4974995  39.5526842   1.2238830
  47.8398669  40.2426104   1.3118958  49.3015394  39.9423274   1.5672816
  46.5175189  44.7253713  -1.6628268  46.8098163  45.2858770  -2.3815902
  47.0273810  45.0182274  -0.9075109  41.4808814  45.5034064  -0.5734815
  41.4384993  45.7294910  -1.5026283  42.3971513  45.2697439  -0.4249013
  44.9274448  35.9718132   6.3245815  45.2823836  36.1989605   7.1840280
  45.5746579  36.3036509   5.7023070  50.6841565  41.1613095   2.0406415
  51.1178071  41.0688384   2.8889469  51.3973145  41.1370595   1.4026431
  44.4169459  44.7615189   3.5739516  44.4706482  45.3306125   4.3417232
  43.5484241  44.9317074   3.2093553  51.5457114  41.2036795   4.5739301
  51.7393004  42.1082606   4.8198576  51.4457732  40.7444214   5.4077886
  43.1993425  31.0894686   7.0729628  42.5521340  31.7884636   6.9794104
  43.9694440  31.5230830   7.4405876  46.6072223  41.3543538  10.1480181
  46.4557729  41.1254090   9.2310265  46.5976902  42.3114139  10.1611526
  43.3757559  38.9275451   5.1326448  44.3049619  39.0786610   4.9595415
  42.9548589  39.0159472   4.2775094  42.1745891  42.9526115   2.9024985
  42.0356977  42.5844900   3.7750923  41.3860487  43.4673755   2.7308943
  43.7251106  42.3307718   0.2913823  43.3900939  42.2908488   1.1871473
  43.2255052  41.6652434  -0.1815767  37.6995350  37.7375348   5.8166404
  37.5615148  37.0055587   6.4177943  38.6100274  37.6484248   5.5350592
  40.3277651  37.4495307   5.3050084  41.0377269  36.8088499   5.2636702
  40.2846959  37.7008202   6.2276265  48.3164429  44.3862661   8.2256663
  48.2576976  43.7021881   7.5587246  48.7183948  45.1281651   7.7737289
  39.0406585  34.4360525   7.1245723  38.5043942  33.9851264   7.7767320
  38.4523293  34.5706434   6.3816188  37.3355128  51.2024574   1.0190382
  37.5751726  51.8343099   1.6969401  36.4924325  50.8512614   1.3055741
  48.3181837  42.3502245   6.4570643  47.4308615  42.0128166   6.5797042
  48.8880388  41.6185276   6.6939408  41.8482990  47.0103697   3.4231886
  41.7753162  47.8158668   3.9351191  41.4060383  47.2095663   2.5979907
  52.7999177  37.7610462   1.2187204  52.7889053  38.6435177   0.8481137
  51.9316557  37.4082013   1.0241741  44.3081674  46.9090531   5.5790045
  45.0209646  47.5437996   5.5065946  43.8171702  47.0054397   4.7630046
  39.3593587  44.6584974   6.3995615  40.0603047  45.2921457   6.5525010
  38.8888702  44.9999706   5.6391255  47.1594873  37.2129582   4.2248166
  46.5066323  37.4605489   3.5700619  47.5375253  36.3993720   3.8910643
  44.1202047  47.2489275  -1.6723664  44.3024441  46.4310931  -1.2095912
  44.9435033  47.4656967  -2.1098774  43.2082446  37.9549393  10.7114203
  42.5323083  37.8543522  11.3816578  44.0310080  37.7988607  11.1750200
  34.9561305  44.1921329   3.3326718  35.5414742  43.4465017   3.4654622
  34.7586144  44.5025286   4.2163382  41.9505229  49.2616320   4.9471819
  42.5023537  49.4247942   5.7120904  42.2911422  49.8520758   4.2751844
  36.4021995  33.6814603   9.1966738  37.0294034  33.2991680   9.8104262
  35.5449914  33.4628805   9.5622430  46.8016103  44.0877578  10.8020473
  47.3456007  44.7007536  10.3075428  46.2202948  44.6457156  11.3187486
  45.0873616  47.2098296   1.9335501  44.9624756  46.4088036   1.4246447
  45.7452707  47.7044489   1.4449471  47.1508525  45.0107316   3.5615051
  46.2038860  44.8912667   3.4893378  47.4991298  44.1229814   3.6441313
  44.1554958  44.8060032  -0.2380597  44.0079920  43.8776740  -0.0573027
  44.9808451  44.8280123  -0.7223521  47.7589080  45.6288591   0.8484276
  48.6835627  45.4231452   0.7108727  47.5904383  45.3804992   1.7573618
  34.1527378  37.2858824   7.1640083  33.4109114  37.4341459   7.7504714
  33.8320122  37.5467089   6.3006833  42.0971040  46.8274802   6.9620473
  42.4058167  46.5823949   7.8343173  42.8946522  47.0321440   6.4739343
  42.1191652  48.9812712  -0.8074150  41.6796643  48.4889090  -0.1141294
  42.8699769  48.4385679  -1.0482075  39.5665525  44.5250721   1.2648151
  38.9445534  43.8621426   0.9650379  40.2370391  44.5511853   0.5821799
  39.6390052  33.0032509  10.8580657  39.6878207  33.8794631  10.4758427
  40.1812566  32.4609902  10.2852301  50.1244898  43.5473632  10.1381795
  49.3340441  43.5297771   9.5986294  49.8878252  44.0861926  10.8930831
  50.2442773  40.3966098   7.4514523  50.2940778  40.2316106   8.3930046
  50.1356696  39.5293357   7.0612404  47.5346535  36.3797026   8.7673830
  48.4356398  36.2403491   8.4757828  47.6094510  36.5451481   9.7072007
  41.8689340  33.7563881   7.6127016  40.9992650  34.0497447   7.3409605
  42.1048821  34.3404326   8.3334280  51.7460970  42.8163040   7.6956545
  51.4545778  43.1793020   8.5320006  51.1333101  42.1030048   7.5169877
  52.9456652  40.3815920   0.2159115  53.7803543  40.8205724   0.3796675
  53.0815781  39.9054573  -0.6032639  49.9948158  37.9395654   6.1636603
  50.4702279  38.1323301   5.3555454  49.0713723  37.9954840   5.9179986
  48.6949827  34.8161414   4.3964908  49.6467250  34.9159512   4.4177132
  48.5253277  34.0239683   4.9062993  51.1737905  38.0367534   3.5107208
  51.1414225  37.0983535   3.6966892  51.7838528  38.1151571   2.7773033
  51.3232393  34.8278578   3.5565491  50.8071442  34.0437034   3.3695420
  52.2072342  34.4997294   3.7212011  56.9914454  39.0983541   2.6513245
  57.7217843  38.8368829   3.2120948  56.3821400  38.3612263   2.6915313
  55.0729752  37.2391404   3.2487696  54.3462915  37.1047369   2.6404187
  54.6577038  37.5468232   4.0544414  42.8959928  40.9581333  11.0135069
  43.8162937  41.1359932  11.2075115  42.8609511  40.0137379  10.8614768
  40.7649866  34.4415574  13.0460599  40.6646593  35.3909931  12.9772690
  40.5471408  34.1133813  12.1736669  40.6281136  37.8712713  11.8625661
  40.1448218  38.6713073  12.0689550  40.7142075  37.8820657  10.9093105
  36.5554473  41.7617247   3.8994094  37.5097727  41.7301190   3.8324026
  36.3566997  41.3007871   4.7144320  37.1453856  40.3318363   6.4664892
  37.9646745  40.8262442   6.4899729  37.4190663  39.4150331   6.4382460
  54.9978619  36.7669457  -0.6235451  54.4378177  36.8362646   0.1496111
  54.3922123  36.5910441  -1.3435955  38.0673828  48.2006184   1.1282735
  37.9506212  49.1451616   1.0261425  37.2466274  47.8979745   1.5168534
  44.9242162  41.7337345  12.6649230  45.7933322  41.9077997  12.3035865
  44.4448913  42.5531761  12.5424959  39.0928342  48.8534446   4.3438663
  39.9955589  48.8858056   4.6605158  38.8665712  47.9234897   4.3584999
  40.8481944  47.6065432   1.0048742  39.8977575  47.6067294   0.8913114
  41.1514430  46.8598167   0.4884777  36.7386261  31.8124114  11.2632103
  37.6017722  31.4560919  11.4735428  36.1651671  31.4738009  11.9507508
  56.5834638  53.4425971   2.0694504  57.2213048  53.3232718   1.3657844
  56.4655481  54.3906815   2.1282457  53.3924344  53.3953399   2.0056029
  53.0542855  53.2794463   1.1176564  54.2614112  52.9944564   1.9857035
  49.2511160  55.2488875  -2.0047080  48.6876025  55.1578812  -2.7730792
  49.1363555  54.4288780  -1.5244587  53.8744127  54.5488250   7.9642235
  53.8632768  54.1541049   7.0922738  54.0364766  53.8154323   8.5576006
  46.7975592  56.7440067   0.8337140  47.5896884  56.4030891   0.4183440
  47.0372242  56.8535042   1.7539294  54.8310718  58.9159843  -6.6932615
  54.1798698  59.5013923  -7.0798601  55.6255081  59.4466038  -6.6337578
  48.7566346  56.0048980  -6.2945481  49.5297222  55.4577967  -6.4332605
  49.1091744  56.8693229  -6.0831019  50.5951388  57.3325362   6.9121419
  50.3041254  58.2370993   6.7968085  51.2308372  57.3741890   7.6265488
  51.5207595  54.7102211   3.5022778  52.1171167  54.4858233   2.7879741
  51.5782566  53.9686956   4.1048226  56.1375906  51.1677424  -0.8552288
  56.9238995  50.7496848  -1.2061871  56.4014610  52.0723517  -0.6870639
  56.3085984  56.6050275  -6.1563631  55.6731816  56.6784901  -5.4442726
  55.9783390  57.1943874  -6.8344552  61.5384333  51.1052658   0.0480691
  62.2709505  50.5351874   0.2818520  60.7823689  50.7174258   0.4887197
  50.8128912  54.0669752  -6.4602656  50.6965170  53.3914655  -5.7921572
  50.9231172  53.5802126  -7.2770503  53.1560453  53.5279899  -2.7555967
  52.7918660  53.0010520  -2.0443045  54.0127569  53.1378368  -2.9289481
  59.0609754  44.8174232   4.5075300  58.7293078  45.6869643   4.2836515
  58.4655367  44.5010516   5.1869330  55.5541273  57.0186778   3.9071212
  55.2541996  57.9211817   3.7987019  55.2092333  56.7518961   4.7592365
  49.0053755  53.4700575  -0.0592083  48.0804251  53.3376789   0.1485608
  49.2538168  54.2494794   0.4377859  58.9538417  49.5369318   1.5868650
  58.0455294  49.4684726   1.2927411  58.9026013  50.0141263   2.4150475
  52.7755161  51.0127456  -6.7747951  52.6554786  51.4584507  -5.9362471
  52.0807749  51.3612774  -7.3334413  46.3662566  53.1133848   0.7751706
  46.4954947  53.3668327   1.6891117  45.6860017  53.7061556   0.4556361
  50.5362053  63.7831098  -3.1257820  50.4586083  64.7338923  -3.0469339
  49.9323697  63.4376971  -2.4682894  53.0279283  50.9558964   9.5303547
  52.2512617  51.5152884   9.5206412  53.6669846  51.4415746  10.0518417
  60.8200063  47.7385756   3.3646524  60.1774444  48.0318289   2.7186318
  60.3154992  47.6238677   4.1699720  58.4740227  51.4848930  -5.9467617
  59.3858083  51.7176316  -6.1219920  57.9649874  52.0685974  -6.5092539
  51.2825655  53.7644417   9.0921514  52.0240339  54.3029461   8.8156337
  50.5762641  54.3910706   9.2493066  56.7580995  55.9073557   7.6893675
  57.1664351  55.4655968   6.9448308  56.0358256  55.3326185   7.9427868
  53.1112065  50.8446164   5.0627232  53.9573260  51.2685578   5.2061881
  53.0510702  50.1879788   5.7565795  57.0809809  56.4674748   1.4445964
  56.4518672  56.6320462   0.7422032  56.6935471  56.8816358   2.2156928
  60.9599041  57.4029186  -1.2009672  60.2750079  57.7828087  -1.7512639
  61.0442891  58.0124512  -0.4677724  56.2611510  48.5050532   6.7208406
  56.0172442  49.2592593   6.1842682  56.5371441  48.8835880   7.5555653
  58.2149973  55.0489145   5.3985672  58.4266868  55.6920905   4.7220053
  58.1679721  54.2151461   4.9307602  55.8176202  47.6606965   2.3022244
  54.9560681  47.9588219   2.5938981  55.8438636  47.8777364   1.3703276
  52.6337771  56.2049156  -1.2903951  53.0976117  56.4836859  -2.0799328
  52.3694569  55.3032601  -1.4730860  49.5261852  55.7520638   1.6475813
  50.0963209  56.1807906   1.0093297  50.1169964  55.4703222   2.3459998
  51.5706657  52.3272308  -4.4814386  52.2730701  52.7793352  -4.0140459
  51.2387286  51.6856127  -3.8534492  50.0187019  50.9184065   9.8936824
  49.3885679  51.6000346  10.1272221  49.9123107  50.8067147   8.9489962
  45.3131991  50.5855861   0.8202748  44.5231045  50.8413390   0.3442859
  45.8043239  51.4004199   0.9254789  59.3295801  57.9261100   3.5708029
  60.1513245  57.5241288   3.2890710  59.3258204  57.8229334   4.5224145
  47.2646737  50.9500440  -2.2213775  46.4677900  51.0619135  -1.7030280
  47.0372329  51.2887093  -3.0872885  53.0952404  57.4745144   5.7268739
  53.1596837  57.9365551   6.5626911  52.3863328  56.8442508   5.8551049
  43.5969694  50.8386352   3.2517739  43.8477733  51.7233361   3.5175315
  44.1329243  50.6590953   2.4792831  67.4201794  54.2699849  -0.0807000
  66.6665502  53.7007247  -0.2362995  67.5549335  54.2362513   0.8663635
  52.8100422  59.1413251  -4.4052280  52.6746097  59.9864787  -3.9767432
  53.3510234  59.3432529  -5.1686347  49.2967762  45.2204831  12.2562075
  48.9034707  44.6671029  12.9309719  50.1133902  45.5315409  12.6468592
  46.2629819  56.6588689  -3.8324355  46.7754340  57.4531939  -3.6818791
  46.9152532  55.9614980  -3.8990754  48.0724704  59.7754445  -1.7501602
  48.2491332  60.6972410  -1.9380618  48.8681538  59.4612865  -1.3207222
  52.2135723  46.6362710   9.8482331  52.9545436  47.2369863   9.7686794
  52.4453645  45.8940348   9.2900374  47.3577061  51.8219077   8.1260561
  47.2430576  50.9204334   8.4267660  46.5021578  52.0682774   7.7745378
  54.4368898  59.7636818   9.7248062  53.9932752  58.9773196   9.4068966
  55.0986112  59.9515968   9.0591953  49.1956019  61.2932619   4.2508740
  49.7463445  61.1649683   3.4785734  48.3567495  61.5927508   3.9003633
  56.5350136  60.0439617   7.7529463  56.5168612  60.8648499   7.2609732
  57.4570056  59.9193693   7.9779604  52.9923191  57.5583747   8.5952971
  53.5251527  56.7972035   8.3652279  52.4637272  57.2657399   9.3377126
  56.1592885  42.6643813   4.1246613  55.8157155  43.5545455   4.0485724
  56.5271848  42.4745471   3.2616198  44.2278736  54.9877343  -3.0564785
  45.0653958  55.3974352  -3.2731077  44.4057004  54.0476786  -3.0864591
  56.1243168  52.6552424  -7.3680952  55.6089792  53.4257029  -7.1292564
  55.8520477  51.9817560  -6.7447890  53.7090279  47.5002125  -2.3095713
  52.8531876  47.1108975  -2.4890075  54.1217231  47.5794086  -3.1695928
  55.2389426  45.0348468   2.0895846  54.7354221  44.9978603   1.2763652
  55.5320033  45.9441211   2.1492503  51.4832312  45.1187198   1.0962028
  52.3485309  44.9230006   0.7367918  51.5509821  44.8897550   2.0231385
  61.0977442  55.4084779  -5.4327778  60.3206885  55.0695938  -5.8772616
  61.7768923  55.4137402  -6.1072813  55.9129471  50.5279516  -5.5421171
  55.6079607  50.8425665  -4.6911027  56.8659913  50.6060936  -5.4993838
  54.3575903  56.6869739  -3.8928217  53.8297265  55.9522499  -4.2054979
  53.8563406  57.4644416  -4.1388248  59.3368749  54.8818760   1.2238830
  58.6792424  55.5718021   1.3118958  60.1409148  55.2715192   1.5672816
  49.0894631  47.3489406  -1.5321605  49.6638383  47.1264587  -2.2648412
  49.6765613  47.4178100  -0.7793004  58.1474208  53.2363133  -0.7257229
  58.6606090  53.8693124  -0.2235519  58.7975432  52.6364328  -1.0913869
  51.3917299  44.2230655  -2.8046536  50.7381711  43.9079672  -3.4289921
  51.3497773  43.6006395  -2.0786713  52.5028503  54.5049950 -10.8893244
  51.5955565  54.2739203 -10.6902095  52.9999535  53.7087569 -10.7019262
  54.6255039  50.7112588   1.5201112  53.7077600  50.9327535   1.3622800
  55.0415183  50.7858899   0.6612819  55.4090087  52.1104004  -3.3496208
  56.1561906  52.6225401  -3.6589086  55.6781676  51.7888057  -2.4891814
  53.6816737  54.6062545  -6.3669253  52.7727956  54.3221577  -6.2696784
  53.7111821  55.0261623  -7.2265947  58.9136004  58.2169134  -2.5978086
  58.4598331  57.3760044  -2.5412895  58.2829971  58.8530532  -2.2603306
  57.8568924  49.1461120  -1.3677418  57.1191681  48.6338506  -1.0367176
  58.1095697  48.7061502  -2.1794142  57.3568943  60.0545631  -1.6628268
  57.6491918  60.6150688  -2.3815902  57.8667564  60.3474192  -0.9075109
  57.9580551  41.9237372  -0.7735649  58.2639428  41.0634736  -1.0609734
  58.6833156  42.5154992  -0.9736655  44.2504907  52.3268059  -2.3854051
  44.0529307  51.7337419  -3.1102985  43.6951571  52.0220269  -1.6678112
  52.2301631  52.2191165  -0.2659458  52.2850241  51.2665002  -0.3416982
  51.4192833  52.3750604   0.2181840  50.1693991  50.8368225  -2.5069079
  49.3561856  51.1362395  -2.1003887  50.6652985  50.4423914  -1.7894597
  52.3202569  60.8325982  -0.5734815  52.2778747  61.0586828  -1.5026283
  53.2365268  60.5989356  -0.4249013  55.7668202  51.3010049   6.3245815
  56.1217590  51.5281523   7.1840280  56.4140334  51.6328426   5.7023070
  61.4965939  54.4228485  -2.9704856  61.3583838  54.6130081  -3.8983667
  61.1402158  55.1847868  -2.5136805  49.6608066  48.4086580   3.1092156
  50.3007445  48.2675340   2.4115119  48.8285596  48.1221094   2.7330758
  50.4368369  57.7089011  -0.7772852  51.2308968  57.2139331  -0.9790277
  49.7260062  57.1806874  -1.1405146  55.2563214  60.0907106   3.5739516
  55.3100236  60.6598043   4.3417232  54.3877995  60.2608991   3.2093553
  46.7451133  51.8532093  -4.7013099  45.8148721  51.7916548  -4.4843137
  46.8408605  51.3308045  -5.4976458  46.6636682  48.3786905  -2.1134857
  46.9243499  49.2932239  -2.2225697  47.4853854  47.9111348  -1.9638245
  48.1361607  49.7924663   5.0563967  48.8084661  49.5842025   4.4076616
  47.3091394  49.5946749   4.6169199  62.3850869  56.5328713   4.5739301
  62.5786759  57.4374523   4.8198576  62.2851487  56.0736132   5.4077886
  54.0387179  46.4186604   7.0729628  53.3915094  47.1176553   6.9794104
  54.8088195  46.8522747   7.4405876  57.4465977  56.6835456  10.1480181
  57.2951484  56.4546007   9.2310265  57.4370657  57.6406057  10.1611526
  54.2151314  54.2567368   5.1326448  55.1443374  54.4078528   4.9595415
  53.7942344  54.3451389   4.2775094  53.0139645  58.2818033   2.9024985
  52.8750731  57.9136817   3.7750923  52.2254242  58.7965672   2.7308943
  54.5644861  57.6599636   0.2913823  54.2294693  57.6200406   1.1871473
  54.0648806  56.9944351  -0.1815767  48.5389105  53.0667266   5.8166404
  48.4008902  52.3347504   6.4177943  49.4494028  52.9776166   5.5350592
  51.1671405  52.7787225   5.3050084  51.8771024  52.1380417   5.2636702
  51.1240713  53.0300120   6.2276265  59.1558184  59.7154578   8.2256663
  59.0970730  59.0313798   7.5587246  59.5577702  60.4573568   7.7737289
  49.8800339  49.7652443   7.1245723  49.3437696  49.3143181   7.7767320
  49.2917048  49.8998352   6.3816188  48.1748883  66.5316492   1.0190382
  48.4145481  67.1635016   1.6969401  47.3318079  66.1804532   1.3055741
  59.1575591  57.6794162   6.4570643  58.2702370  57.3420084   6.5797042
  59.7274142  56.9477193   6.6939408  40.8104738  54.0118254  -0.2186306
  41.4975778  53.6979984  -0.8065291  40.6552867  54.9159619  -0.4919054
  45.6139460  48.9008450   4.2098718  45.5297649  48.2934120   3.4749128
  44.7922167  49.3917469   4.2108214  52.6876745  62.3395615   3.4231886
  52.6146916  63.1450586   3.9351191  52.2454138  62.5387580   2.5979907
  52.4766524  61.5767385  -3.0665293  51.6934046  62.1189065  -2.9727068
  53.1759269  62.0941364  -2.6671051  55.7863174  47.3862014  -0.4231087
  56.2831874  46.6331976  -0.7430017  55.0150156  47.4226331  -0.9887878
  63.6392932  53.0902380   1.2187204  63.6282808  53.9727095   0.8481137
  62.7710311  52.7373930   1.0241741  55.1475428  62.2382449   5.5790045
  55.8603400  62.8729913   5.5065946  54.6565457  62.3346315   4.7630046
  56.8692955  56.1433701  -2.8492664  55.9349234  56.2635164  -3.0187959
  57.0469623  55.2406168  -3.1132654  52.3698143  49.5279397  -0.6959403
  51.9995931  48.9750437  -0.0078497  52.8657236  48.9237530  -1.2484402
  60.2565506  51.9851021  -2.3142630  60.7225959  52.8179012  -2.3882327
  60.7073007  51.5196002  -1.6097371  50.1987342  59.9876892   6.3995615
  50.8996801  60.6213375   6.5525010  49.7282457  60.3291624   5.6391255
  58.3241737  58.3294842  -5.3156478  58.6001581  58.2151436  -4.4062603
  57.4546236  57.9312327  -5.3544304  58.2282169  44.3531608   1.7248272
  57.3145249  44.5835834   1.8930479  58.6575271  44.4370052   2.5762304
  57.9988628  52.5421499   4.2248166  57.3460078  52.7897407   3.5700619
  58.3769007  51.7285638   3.8910643  54.9595801  62.5781193  -1.6723664
  55.1418196  61.7602849  -1.2095912  55.7828787  62.7948885  -2.1098774
  55.2937967  61.5049378  -4.4108615  55.8225733  60.9941832  -5.0238453
  55.5566187  61.1891908  -3.5463082  54.0476201  53.2841311  10.7114203
  53.3716838  53.1835440  11.3816578  54.8703834  53.1280524  11.1750200
  45.7955060  59.5213247   3.3326718  46.3808496  58.7756935   3.4654622
  45.5979898  59.8317204   4.2163382  48.6493715  62.5564494  -1.6510840
  47.9804090  63.0410622  -2.1346799  48.5106585  62.8033715  -0.7367461
  40.3872714  52.0918847   2.0531161  40.4256814  51.5582438   2.8468279
  39.8813007  51.5654053   1.4342138  52.7898983  64.5908238   4.9471819
  53.3417292  64.7539859   5.7120904  53.1305177  65.1812676   4.2751844
  47.7663477  46.9383388   5.5493704  47.8304803  47.7998219   5.1371101
  47.7030597  46.3257389   4.8166062  47.2415749  49.0106520   9.1966738
  47.8687788  48.6283598   9.8104262  46.3843668  48.7920722   9.5622430
  57.6409858  59.4169495  10.8020473  58.1849762  60.0299454  10.3075428
  57.0596703  59.9749074  11.3187486  44.0181292  50.8182949  -4.8714907
  44.3134733  49.9093628  -4.9247854  43.1169328  50.7970689  -5.1933905
  55.9267371  62.5390214   1.9335501  55.8018510  61.7379953   1.4246447
  56.5846462  63.0336407   1.4449471  47.5475539  48.8938946   1.1112641
  46.8262125  49.5074914   0.9720115  48.3368795  49.4296711   1.0329287
  57.9902279  60.3399234   3.5615051  57.0432615  60.2204585   3.4893378
  58.3385052  59.4521732   3.6441313  50.3501853  46.2293373   7.3853293
  50.8736254  46.4755669   8.1479602  50.1314186  47.0613407   6.9656430
  54.9948712  60.1351950  -0.2380597  54.8473675  59.2068657  -0.0573027
  55.8202206  60.1572041  -0.7223521  48.8610957  48.7870017  -4.3800105
  49.2007029  49.3155938  -5.1021496  49.3083077  49.1250423  -3.6041538
  58.5982834  60.9580509   0.8484276  59.5229382  60.7523370   0.7108727
  58.4298138  60.7096910   1.7573618  51.5554398  47.1707068   5.0702964
  51.2151218  46.3714881   5.4723643  50.8493404  47.4708778   4.4979797
  52.2070869  44.2556380   3.5230287  53.0296939  43.7816858   3.4009177
  52.4508933  45.0346864   4.0228973  50.8479104  47.2844638  -6.1806812
  51.5687466  47.6625891  -6.6843095  50.2244408  48.0033515  -6.0771834
  54.9910227  47.9889787  -5.2448479  55.2073841  48.8714425  -5.5459651
  54.5104294  47.5976001  -5.9742837  49.7309448  50.9475501   1.3322265
  49.5854029  51.2615804   2.2246547  49.2534652  51.5660401   0.7793164
  51.5905831  47.9378049   1.3803155  51.5767400  47.0419142   1.0435453
  52.3078259  47.9448712   2.0141441  53.4431962  48.3715389   3.4256282
  53.1849740  49.2932460   3.4240613  52.9117002  47.9745823   4.1156746
  58.3878150  61.4766176  -3.7953632  58.5615028  60.9112598  -4.5479780
  58.8807042  62.2767071  -3.9774143  44.2055110  53.4880845   4.2709926
  43.6608578  54.2640653   4.4030201  45.0834460  53.8351650   4.1129048
  50.9942727  46.8192429  -3.3509275  51.1158638  45.8909075  -3.1518388
  50.7044769  46.8331115  -4.2630960  53.8633917  44.5047339  -0.2142555
  53.8855614  44.5686672  -1.1690576  54.2801976  43.6651848  -0.0202049
  64.2417542  54.2402599  -2.1763333  64.6848688  53.4909924  -2.5744209
  63.3644052  54.2312735  -2.5589601  44.9921132  52.6150741   7.1640083
  44.2502868  52.7633377   7.7504714  44.6713876  52.8759007   6.3006833
  52.9364795  62.1566720   6.9620473  53.2451921  61.9115866   7.8343173
  53.7340277  62.3613358   6.4739343  52.9585407  64.3104629  -0.8074150
  52.5190397  63.8181008  -0.1141294  53.7093524  63.7677597  -1.0482075
  45.4377746  60.5016170  -0.8049522  46.2635766  60.2019942  -1.1850879
  45.0871798  59.7323793  -0.3559733  50.4059279  59.8542638   1.2648151
  49.7839288  59.1913343   0.9650379  51.0764146  59.8803770   0.5821799
  43.6386351  58.4202497   0.1539411  42.8018259  57.9924671  -0.0276587
  43.6109996  58.6134940   1.0910203  50.4783806  48.3324426  10.8580657
  50.5271962  49.2086549  10.4758427  51.0206321  47.7901819  10.2852301
  60.9638652  58.8765550  10.1381795  60.1734196  58.8589688   9.5986294
  60.7272007  59.4153843  10.8930831  61.0836527  55.7258016   7.4514523
  61.1334532  55.5608023   8.3930046  60.9750451  54.8585275   7.0612404
  49.9672786  58.4046562  -5.2593388  50.1160906  59.0882026  -5.9126715
  50.7739229  58.3851652  -4.7443932  58.3740290  51.7088944   8.7673830
  59.2750152  51.5695409   8.4757828  58.4488264  51.8743399   9.7072007
  52.7083095  49.0855799   7.6127016  51.8386404  49.3789365   7.3409605
  52.9442575  49.6696244   8.3334280  62.5854724  58.1454957   7.6956545
  62.2939532  58.5084938   8.5320006  61.9726855  57.4321966   7.5169877
  63.7850406  55.7107837   0.2159115  64.6197298  56.1497641   0.3796675
  63.9209535  55.2346490  -0.6032639  60.8341912  53.2687572   6.1636603
  61.3096034  53.4615218   5.3555454  59.9107478  53.3246758   5.9179986
  47.7225419  54.4311739  -4.2532319  47.4771461  53.5274069  -4.0552109
  47.8921333  54.4328890  -5.1952841  55.4122129  45.3035416   5.1292437
  55.9304073  46.0396443   4.8038925  55.0577262  45.6099409   5.9639196
  55.6634723  41.7235698   0.6493333  55.9436477  41.0558887   1.2753760
  56.4485330  41.9164794   0.1367997  59.5343581  50.1453332   4.3964908
  60.4861004  50.2451430   4.4177132  59.3647032  49.3531601   4.9062993
  57.5557961  47.2308915   4.5824309  56.9607893  47.5113928   3.8870798
  57.2707657  47.7202816   5.3541050  62.0131659  53.3659452   3.5107208
  61.9807979  52.4275453   3.6966892  62.6232283  53.4443489   2.7773033
  53.8514990  52.2355505 -10.4465588  54.7974095  52.1061713 -10.3777170
  53.4729235  51.4970167  -9.9696160  62.1626148  50.1570495   3.5565491
  61.6465196  49.3728952   3.3695420  63.0466096  49.8289212   3.7212011
  59.8236874  43.9011511  -0.4838696  59.6261696  43.5926599   0.4004636
  60.4336580  44.6273150  -0.3540766  67.8308209  54.4275459   2.6513245
  68.5611597  54.1660747   3.2120948  67.2215154  53.6904181   2.6915313
  65.9123506  52.5683321   3.2487696  65.1856670  52.4339286   2.6404187
  65.4970793  52.8760150   4.0544414  53.7353682  56.2873251  11.0135069
  54.6556692  56.4651850  11.2075115  53.7003266  55.3429296  10.8614768
  42.9535847  51.4811845  -0.0611656  42.6338632  50.6277153  -0.3537282
  42.4069276  51.6960423   0.6946311  46.7315755  54.1974286   3.6557850
  46.9501765  55.1291393   3.6745884  47.1441529  53.8382260   4.4412654
  53.6519973  44.7042371  -4.3566462  52.8420701  44.3589456  -3.9811215
  54.3404390  44.3949915  -3.7678850  55.5810521  43.7820418  -2.7342165
  56.1341560  44.2015871  -2.0752142  55.8180607  42.8556166  -2.6919209
  51.6043620  49.7707491  13.0460599  51.5040347  50.7201848  12.9772690
  51.3865162  49.4425730  12.1736669  42.8224107  55.1014756   1.9081465
  42.1287579  54.6868709   1.3951420  43.5697098  55.1435293   1.3114884
  58.9589328  45.8920943  -3.2263501  58.3787997  46.5505747  -3.6085448
  58.6925261  45.0698287  -3.6376083  57.4092895  45.2926001  -1.0242180
  57.9092673  45.4042535  -1.8327861  58.0528502  44.9887053  -0.3841372
  51.4674890  53.2004630  11.8625661  50.9841972  54.0004990  12.0689550
  51.5535829  53.2112575  10.9093105  44.7360850  55.0333010  -0.2152520
  44.7131538  55.1320697  -1.1670637  45.0461486  55.8798161   0.1064646
  47.3948228  57.0909165   3.8994094  48.3491481  57.0593107   3.8324026
  47.1960751  56.6299789   4.7144320  47.9847610  55.6610281   6.4664892
  48.8040499  56.1554360   6.4899729  48.2584418  54.7442249   6.4382460
  57.7414206  48.0521033  -4.1707152  56.8540061  48.3370684  -4.3886958
  58.1568195  47.8914797  -5.0179876  61.0928742  48.0767554  -0.4552813
  61.8689132  48.5664007  -0.1828196  60.3676877  48.5025608   0.0019056
  63.5301301  48.7895173   0.6021127  64.1245792  48.5490909  -0.1085564
  63.6027885  48.0702304   1.2294664  45.7498457  62.6328784   0.9164292
  45.6152925  61.8729185   0.3502290  45.3330519  63.3569684   0.4493081
  57.7155230  53.5675569  -3.9556862  57.6590431  54.0244121  -4.7949230
  58.2683572  52.8066254  -4.1334019  61.5260036  49.3565301  -3.1306743
  61.2696970  48.9561937  -2.2998535  60.9012904  50.0709095  -3.2556604
  65.8372374  52.0961374  -0.6235451  65.2771932  52.1654564   0.1496111
  65.2315877  51.9202359  -1.3435955  48.9067583  63.5298101   1.1282735
  48.7899967  64.4743534   1.0261425  48.0860029  63.2271663   1.5168534
  58.4490009  54.7580350  -6.6604333  58.3938813  54.5924622  -7.6015889
  57.8236065  55.4656383  -6.5042143  43.2382524  49.9948415   7.1657089
  43.8841388  49.4847369   7.6544314  43.0299675  50.7317096   7.7400514
  55.7635916  57.0629262  12.6649230  56.6327076  57.2369915  12.3035865
  55.2842668  57.8823679  12.5424959  49.9322097  64.1826363   4.3438663
  50.8349343  64.2149974   4.6605158  49.7059467  63.2526814   4.3584999
  51.6875699  62.9357350   1.0048742  50.7371330  62.9359211   0.8913114
  51.9908185  62.1890084   0.4884777  55.5738254  40.8531236  -2.8273078
  54.8070650  40.2989723  -2.6816396  55.9848959  40.9253105  -1.9658926
  47.5780015  47.1416032  11.2632103  48.4411477  46.7852837  11.4735428
  47.0045426  46.8029927  11.9507508  64.7137881  69.8780168   7.9642235
  64.7026522  69.4832966   7.0922738  64.8758521  69.1446241   8.5576006
  61.4345143  72.6617280   6.9121419  61.1435009  73.5662911   6.7968085
  62.0702127  72.7033808   7.6265488  62.3601349  70.0394128   3.5022778
  62.9564922  69.8150151   2.7879741  62.4176321  69.2978874   4.1048226
  69.9003508  60.1466149   4.5075300  69.5686833  61.0161560   4.2836515
  69.3049122  59.8302433   5.1869330  57.2056320  68.4425766   0.7751706
  57.3348701  68.6960245   1.6891117  56.5253771  69.0353474   0.4556361
  63.8673037  66.2850881   9.5303547  63.0906371  66.8444801   9.5206412
  64.5063600  66.7707664  10.0518417  71.6593818  63.0677674   3.3646524
  71.0168198  63.3610207   2.7186318  71.1548746  62.9530594   4.1699720
  62.1219410  69.0936335   9.0921514  62.8634094  69.6321379   8.8156337
  61.4156395  69.7202623   9.2493066  67.5974749  71.2365475   7.6893675
  68.0058105  70.7947886   6.9448308  66.8752011  70.6618103   7.9427868
  63.9505819  66.1738082   5.0627232  64.7967014  66.5977495   5.2061881
  63.8904457  65.5171706   5.7565795  67.1005265  63.8342450   6.7208406
  66.8566196  64.5884511   6.1842682  67.3765195  64.2127798   7.5555653
  66.6569956  62.9898883   2.3022244  65.7954435  63.2880137   2.5938981
  66.6832391  63.2069282   1.3703276  60.8580773  66.2475983   9.8936824
  60.2279434  66.9292264  10.1272221  60.7516861  66.1359064   8.9489962
  56.1525746  65.9147779   0.8202748  55.3624800  66.1705307   0.3442859
  56.6436993  66.7296117   0.9254789  63.9346159  72.8037061   5.7268739
  63.9990591  73.2657468   6.5626911  63.2257083  72.1734426   5.8551049
  54.4363449  66.1678269   3.2517739  54.6871487  67.0525279   3.5175315
  54.9722997  65.9882871   2.4792831  60.1361516  60.5496749  12.2562075
  59.7428462  59.9962947  12.9309719  60.9527656  60.8607327  12.6468592
  63.0529477  61.9654628   9.8482331  63.7939190  62.5661781   9.7686794
  63.2847400  61.2232265   9.2900374  58.1970815  67.1510995   8.1260561
  58.0824330  66.2496252   8.4267660  57.3415333  67.3974692   7.7745378
  65.2762653  75.0928735   9.7248062  64.8326507  74.3065114   9.4068966
  65.9379866  75.2807886   9.0591953  63.8316945  72.8875665   8.5952971
  64.3645282  72.1263953   8.3652279  63.3031026  72.5949316   9.3377126
  66.9986640  57.9935731   4.1246613  66.6550909  58.8837372   4.0485724
  67.3665603  57.8037388   3.2616198  66.0783180  60.3640386   2.0895846
  65.5747976  60.3270521   1.2763652  66.3713787  61.2733128   2.1492503
  62.3226066  60.4479115   1.0962028  63.1879063  60.2521924   0.7367918
  62.3903575  60.2189467   2.0231385  59.9288385  62.6781323  -1.5321605
  60.5032137  62.4556505  -2.2648412  60.5159368  62.7470018  -0.7793004
  62.2311053  59.5522572  -2.8046536  61.5775465  59.2371589  -3.4289921
  62.1891527  58.9298313  -2.0786713  68.7974306  57.2529290  -0.7735649
  69.1033182  56.3926653  -1.0609734  69.5226910  57.8446910  -0.9736655
  66.6061957  66.6301967   6.3245815  66.9611345  66.8573440   7.1840280
  67.2534088  66.9620344   5.7023070  60.5001820  63.7378498   3.1092156
  61.1401199  63.5967257   2.4115119  59.6679351  63.4513012   2.7330758
  57.5030436  63.7078823  -2.1134857  57.7637254  64.6224156  -2.2225697
  58.3247609  63.2403266  -1.9638245  58.9755362  65.1216580   5.0563967
  59.6478415  64.9133942   4.4076616  58.1485148  64.9238666   4.6169199
  64.8780934  61.7478521   7.0729628  64.2308849  62.4468471   6.9794104
  65.6481949  62.1814665   7.4405876  68.2859732  72.0127373  10.1480181
  68.1345238  71.7837925   9.2310265  68.2764411  72.9697975  10.1611526
  65.0545068  69.5859286   5.1326448  65.9837128  69.7370446   4.9595415
  64.6336098  69.6743307   4.2775094  59.3782859  68.3959183   5.8166404
  59.2402657  67.6639422   6.4177943  60.2887783  68.3068083   5.5350592
  62.0065160  68.1079143   5.3050084  62.7164778  67.4672335   5.2636702
  61.9634468  68.3592037   6.2276265  60.7194094  65.0944360   7.1245723
  60.1831451  64.6435099   7.7767320  60.1310802  65.2290269   6.3816188
  51.6498493  69.3410172  -0.2186306  52.3369533  69.0271902  -0.8065291
  51.4946621  70.2451536  -0.4919054  56.4533215  64.2300368   4.2098718
  56.3691404  63.6226038   3.4749128  55.6315921  64.7209386   4.2108214
  66.6256929  62.7153932  -0.4231087  67.1225628  61.9623894  -0.7430017
  65.8543910  62.7518248  -0.9887878  61.0381096  75.3168810   6.3995615
  61.7390556  75.9505293   6.5525010  60.5676211  75.6583541   5.6391255
  69.0675924  59.6823525   1.7248272  68.1539003  59.9127752   1.8930479
  69.4969025  59.7661969   2.5762304  68.8382382  67.8713417   4.2248166
  68.1853832  68.1189325   3.5700619  69.2162762  67.0577555   3.8910643
  64.8869955  68.6133228  10.7114203  64.2110592  68.5127358  11.3816578
  65.7097589  68.4572442  11.1750200  56.6348814  74.8505165   3.3326718
  57.2202251  74.1048853   3.4654622  56.4373653  75.1609121   4.2163382
  51.2266469  67.4210765   2.0531161  51.2650568  66.8874356   2.8468279
  50.7206762  66.8945970   1.4342138  58.6057231  62.2675305   5.5493704
  58.6698558  63.1290136   5.1371101  58.5424351  61.6549307   4.8166062
  58.0809504  64.3398438   9.1966738  58.7081543  63.9575515   9.8104262
  57.2237423  64.1212640   9.5622430  68.4803612  74.7461413  10.8020473
  69.0243516  75.3591371  10.3075428  67.8990457  75.3040992  11.3187486
  58.3869293  64.2230864   1.1112641  57.6655879  64.8366831   0.9720115
  59.1762549  64.7588629   1.0329287  61.1895607  61.5585290   7.3853293
  61.7130009  61.8047587   8.1479602  60.9707940  62.3905325   6.9656430
  62.3948152  62.4998985   5.0702964  62.0544972  61.7006798   5.4723643
  61.6887158  62.8000696   4.4979797  63.0464624  59.5848298   3.5230287
  63.8690693  59.1108776   3.4009177  63.2902687  60.3638781   4.0228973
  60.5703203  66.2767418   1.3322265  60.4247783  66.5907721   2.2246547
  60.0928406  66.8952319   0.7793164  62.4299586  63.2669966   1.3803155
  62.4161154  62.3711060   1.0435453  63.1472014  63.2740630   2.0141441
  64.2825716  63.7007307   3.4256282  64.0243494  64.6224377   3.4240613
  63.7510757  63.3037741   4.1156746  55.0448865  68.8172763   4.2709926
  54.5002333  69.5932571   4.4030201  55.9228215  69.1643567   4.1129048
  64.7027672  59.8339257  -0.2142555  64.7249369  59.8978590  -1.1690576
  65.1195731  58.9943766  -0.0202049  55.8314887  67.9442659   7.1640083
  55.0896623  68.0925294   7.7504714  55.5107631  68.2050925   6.3006833
  61.3177561  63.6616344  10.8580657  61.3665716  64.5378467  10.4758427
  61.8600075  63.1193737  10.2852301  71.8032407  74.2057467  10.1381795
  71.0127950  74.1881606   9.5986294  71.5665761  74.7445761  10.8930831
  71.9230282  71.0549934   7.4514523  71.9728287  70.8899941   8.3930046
  71.8144205  70.1877193   7.0612404  69.2134044  67.0380862   8.7673830
  70.1143907  66.8987326   8.4757828  69.2882019  67.2035316   9.7072007
  63.5476849  64.4147716   7.6127016  62.6780159  64.7081282   7.3409605
  63.7836330  64.9988161   8.3334280  71.6735667  68.5979490   6.1636603
  72.1489788  68.7907136   5.3555454  70.7501232  68.6538676   5.9179986
  66.2515883  60.6327333   5.1292437  66.7697827  61.3688360   4.8038925
  65.8971016  60.9391327   5.9639196  66.5028477  57.0527616   0.6493333
  66.7830231  56.3850805   1.2753760  67.2879084  57.2456711   0.1367997
  70.3737336  65.4745250   4.3964908  71.3254759  65.5743348   4.4177132
  70.2040786  64.6823518   4.9062993  68.3951715  62.5600833   4.5824309
  67.8001647  62.8405846   3.8870798  68.1101412  63.0494734   5.3541050
  73.0019902  65.4862413   3.5565491  72.4858951  64.7020870   3.3695420
  73.8859851  65.1581130   3.7212011  70.6630629  59.2303429  -0.4838696
  70.4655450  58.9218517   0.4004636  71.2730335  59.9565067  -0.3540766
  64.5747437  71.6165169  11.0135069  65.4950446  71.7943768  11.2075115
  64.5397020  70.6721214  10.8614768  53.7929602  66.8103762  -0.0611656
  53.4732386  65.9569071  -0.3537282  53.2463030  67.0252340   0.6946311
  57.5709510  69.5266203   3.6557850  57.7895519  70.4583311   3.6745884
  57.9835283  69.1674178   4.4412654  66.4204276  59.1112335  -2.7342165
  66.9735314  59.5307789  -2.0752142  66.6574362  58.1848084  -2.6919209
  62.4437375  65.0999409  13.0460599  62.3434102  66.0493766  12.9772690
  62.2258917  64.7717648  12.1736669  53.6617862  70.4306674   1.9081465
  52.9681333  70.0160627   1.3951420  54.4090853  70.4727210   1.3114884
  62.3068645  68.5296548  11.8625661  61.8235727  69.3296908  12.0689550
  62.3929584  68.5404493  10.9093105  58.2341982  72.4201083   3.8994094
  59.1885236  72.3885025   3.8324026  58.0354506  71.9591706   4.7144320
  58.8241364  70.9902199   6.4664892  59.6434253  71.4846277   6.4899729
  59.0978172  70.0734167   6.4382460  54.0776279  65.3240333   7.1657089
  54.7235142  64.8139286   7.6544314  53.8693430  66.0609014   7.7400514
  66.6029671  72.3921180  12.6649230  67.4720831  72.5661832  12.3035865
  66.1236422  73.2115597  12.5424959  66.4132009  56.1823154  -2.8273078
  65.6464404  55.6281640  -2.6816396  66.8242714  56.2545023  -1.9658926
  58.4173770  62.4707950  11.2632103  59.2805231  62.1144754  11.4735428
  57.8439180  62.1321844  11.9507508  70.9755271  75.8788666  12.2562075
  70.5822216  75.3254865  12.9309719  71.7921411  76.1899245  12.6468592
  73.2831129  80.4291327  13.0460599  73.1827856  81.3785684  12.9772690
  73.0652671  80.1009566  12.1736669  69.2567524  77.7999867  11.2632103
  70.1198986  77.4436672  11.4735428  68.6832935  77.4613762  11.9507508
  57.6409859  36.4231618  -2.4734220  58.1849763  37.0361576  -2.9679265
  57.0596704  36.9811196  -1.9567207  60.9638653  35.8827672  -3.1372899
  60.1734197  35.8651811  -3.6768399  60.7272008  36.4215966  -2.3823862
  55.7635918  34.0691385  -0.6105464  56.6327077  34.2432037  -0.9718829
  55.2842669  34.8885802  -0.7329734  64.7137883  46.8842291  -5.3112459
  64.7026523  46.4895089  -6.1831955  64.8758522  46.1508363  -4.7178687
  61.4345144  49.6679402  -6.3633275  61.1435010  50.5725033  -6.4786608
  62.0702128  49.7095930  -5.6489205  62.3601351  47.0456251  -9.7731915
  62.9564923  46.8212273 -10.4874952  62.4176322  46.3040996  -9.1706467
  63.8673038  43.2913004  -3.7451146  63.0906373  43.8506924  -3.7548282
  64.5063602  43.7769787  -3.2236276  71.6593819  40.0739797  -9.9108170
  71.0168199  40.3672330 -10.5568375  71.1548748  39.9592717  -9.1054973
  62.1219411  46.0998457  -4.1833179  62.8634095  46.6383501  -4.4598356
  61.4156396  46.7264746  -4.0261628  67.5974750  48.2427598  -5.5861018
  68.0058106  47.8010008  -6.3306386  66.8752012  47.6680225  -5.3326825
  63.9505820  43.1800204  -8.2127461  64.7967016  43.6039618  -8.0692812
  63.8904458  42.5233829  -7.5188898  67.1005266  40.8404573  -6.5546287
  66.8566198  41.5946633  -7.0912012  67.3765196  41.2189920  -5.7199040
  60.8580775  43.2538105  -3.3817869  60.2279435  43.9354386  -3.1482473
  60.7516862  43.1421187  -4.3264731  63.9346160  49.8099184  -7.5485954
  63.9990592  50.2719591  -6.7127782  63.2257084  49.1796549  -7.4203644
  60.1361517  37.5558871  -1.0192618  59.7428463  37.0025070  -0.3444974
  60.9527658  37.8669450  -0.6286101  63.0529478  38.9716750  -3.4272362
  63.7939192  39.5723903  -3.5067899  63.2847401  38.2294388  -3.9854319
  58.1970816  44.1573118  -5.1494132  58.0824331  43.2558375  -4.8487033
  57.3415334  44.4036814  -5.5009316  65.2762654  52.0990858  -3.5506632
  64.8326508  51.3127236  -3.8685727  65.9379868  52.2870008  -4.2162741
  63.8316946  49.8937787  -4.6801722  64.3645283  49.1326075  -4.9102414
  63.3031027  49.6011439  -3.9377567  66.6061958  43.6364090  -6.9508879
  66.9611346  43.8635563  -6.0914413  67.2534089  43.9682466  -7.5731623
  64.8780935  38.7540644  -6.2025065  64.2308850  39.4530593  -6.2960589
  65.6481950  39.1876788  -5.8348817  68.2859733  49.0189496  -3.1274512
  68.1345239  48.7900048  -4.0444428  68.2764412  49.9760097  -3.1143167
  65.0545069  46.5921409  -8.1428246  65.9837129  46.7432568  -8.3159278
  64.6336099  46.6805429  -8.9979599  59.3782860  45.4021306  -7.4588289
  59.2402658  44.6701545  -6.8576750  60.2887784  45.3130206  -7.7404101
  62.0065161  45.1141265  -7.9704609  62.7164779  44.4734457  -8.0117991
  61.9634469  45.3654160  -7.0478429  60.7194095  42.1006483  -6.1508970
  60.1831452  41.6497222  -5.4987374  60.1310803  42.2352392  -6.8938506
  61.0381097  52.3230932  -6.8759078  61.7390557  52.9567415  -6.7229684
  60.5676212  52.6645664  -7.6363439  68.8382383  44.8775540  -9.0506528
  68.1853834  45.1251447  -9.7054075  69.2162763  44.0639678  -9.3844050
  64.8869956  45.6195351  -2.5640490  64.2110593  45.5189480  -1.8938115
  65.7097590  45.4634565  -2.1004493  56.6348815  51.8567287  -9.9427975
  57.2202252  51.1110975  -9.8100071  56.4373654  52.1671244  -9.0591311
  58.0809505  41.3460561  -4.0787956  58.7081544  40.9637638  -3.4650431
  57.2237424  41.1274763  -3.7132263  68.4803614  51.7523536  -2.4734220
  69.0243518  52.3653494  -2.9679265  67.8990458  52.3103114  -1.9567207
  55.8314888  44.9504782  -6.1114610  55.0896624  45.0987417  -5.5249980
  55.5107632  45.2113047  -6.9747861  61.3177562  40.6678467  -2.4174036
  61.3665718  41.5440589  -2.7996266  61.8600076  40.1255860  -2.9902393
  71.8032408  51.2119590  -3.1372899  71.0127952  51.1943729  -3.6768399
  71.5665762  51.7507884  -2.3823862  71.9230283  48.0612056  -5.8240170
  71.9728288  47.8962064  -4.8824647  71.8144206  47.1939315  -6.2142289
  69.2134045  44.0442984  -4.5080864  70.1143908  43.9049449  -4.7996866
  69.2882020  44.2097439  -3.5682686  63.5476851  41.4209839  -5.6627677
  62.6780160  41.7143405  -5.9345089  63.7836331  42.0050284  -4.9420414
  71.6735668  45.6041612  -7.1118091  72.1489790  45.7969259  -7.9199239
  70.7501233  45.6600798  -7.3574707  70.3737337  42.4807372  -8.8789785
  71.3254760  42.5805470  -8.8577561  70.2040787  41.6885641  -8.3691701
  73.0019903  42.4924536  -9.7189202  72.4858952  41.7082992  -9.9059273
  73.8859852  42.1643252  -9.5542683  64.5747438  48.6227291  -2.2619624
  65.4950448  48.8005890  -2.0679578  64.5397021  47.6783337  -2.4139925
  62.4437376  42.1061532  -0.2294094  62.3434103  43.0555889  -0.2982003
  62.2258918  41.7779771  -1.1018024  62.3068646  45.5358671  -1.4129033
  61.8235728  46.3359031  -1.2065144  62.3929585  45.5466615  -2.3661589
  58.2341984  49.4263205  -9.3760599  59.1885237  49.3947148  -9.4430667
  58.0354507  48.9653829  -8.5610373  58.8241366  47.9964321  -6.8089801
  59.6434255  48.4908400  -6.7854964  59.0978173  47.0796289  -6.8372234
  66.6029672  49.3983303  -0.6105464  67.4720832  49.5723955  -0.9718829
  66.1236424  50.2177719  -0.7329734  58.4173771  39.4770072  -2.0122590
  59.2805233  39.1206877  -1.8019265  57.8439182  39.1383967  -1.3247186
  70.9755272  52.8850789  -1.0192618  70.5822217  52.3316987  -0.3444974
  71.7921412  53.1961367  -0.6286101  73.2831131  57.4353449  -0.2294094
  73.1827857  58.3847806  -0.2982003  73.0652673  57.1071688  -1.1018024
  69.2567525  54.8061990  -2.0122590  70.1198987  54.4498795  -1.8019265
  68.6832936  54.4675885  -1.3247186   2.3839263  77.2637728  39.7457077
   1.6302972  76.6945126  39.5901082   2.5186804  77.2300392  40.6927712
   2.7945678  77.4213338  42.4777322   3.5249067  77.1598626  43.0385025
   2.1852624  76.6842060  42.5179390   1.9407130  89.4907221  38.9711789
   2.7270219  89.0726644  38.6202206   2.2045834  90.3953313  39.1393438
   7.3415557  89.4282455  39.8744768   8.0740729  88.8581671  40.1082597
   6.5854913  89.0404055  40.3151274   4.8640977  83.1404029  44.3339377
   4.5324302  84.0099440  44.1100592   4.2686591  82.8240313  45.0133407
   4.7569641  87.8599115  41.4132727   3.8486518  87.7914523  41.1191488
   4.7057237  88.3371060  42.2414552   6.6231287  86.0615553  43.1910601
   5.9805667  86.3548086  42.5450395   6.1186216  85.9468474  43.9963797
   4.2771451  89.8078726  33.8796460   5.1889307  90.0406113  33.7044157
   3.7681098  90.3915771  33.3171538   2.0642734  86.8280329  46.5472483
   1.8203666  87.5822390  46.0106759   2.3402664  87.2065677  47.3819730
   1.6207426  85.9836762  42.1286321   0.7591905  86.2818016  42.4203058
   1.6469860  86.2007161  41.1967353  13.2233018  92.5929646  39.7457077
  12.4696726  92.0237044  39.5901082  13.3580559  92.5592310  40.6927712
   1.9624109  80.9873610  43.9510690   1.6188379  81.8775251  43.8749801
   2.3303072  80.7975267  43.0880275   1.0420650  83.3578265  41.9159923
   0.5385445  83.3208400  41.1027729   1.3351256  84.2671008  41.9756580
   1.7160695  88.8509313  34.2842906   1.4110831  89.1655462  35.1353050
   2.6691137  88.9290733  34.3270239   3.9505432  91.5592929  39.1006848
   4.4637314  92.1922921  39.6028558   4.6006656  90.9594125  38.7350209
   1.2121310  90.4333801  36.4767869   1.9593129  90.9455198  36.1674991
   1.4812900  90.1117853  37.3372263   3.6600148  87.4690917  38.4586659
   2.9222904  86.9568303  38.7896901   3.9126921  87.0291299  37.6469935
   3.7611775  80.2467169  39.0528428   4.0670652  79.3864532  38.7654343
   4.4864380  80.8384789  38.8527422   1.5699426  89.6239846  46.1509892
   1.9248814  89.8511319  47.0104357   2.2171557  89.9558223  45.5287147
   1.5894398  85.7091811  39.4032990   2.0863098  84.9561773  39.0834060
   0.8181380  85.7456128  38.8376199   9.4424155  91.4132176  41.0451281
   9.4314032  92.2956892  40.6745214   8.5741535  91.0603727  40.8505818
   6.0596730  90.3080817  37.5121447   6.5257182  91.1408809  37.4381750
   6.5104231  89.8425799  38.2166706   4.0313393  82.6761404  41.5512349
   3.1176473  82.9065631  41.7194556   4.4606494  82.7599848  42.4026381
   3.8019851  90.8651296  44.0512243   3.1491302  91.1127204  43.3964696
   4.1800231  90.0515435  43.7174720  10.0448765  92.5632396  37.6500744
  10.4879911  91.8139721  37.2519868   9.1675276  92.5542532  37.2674476
   4.1771513  90.0318741  48.5937907   5.0781376  89.8925206  48.3021905
   4.2519488  90.1973196  49.5336084   9.5881630  94.0337634  40.0423192
  10.4228522  94.4727438  40.2060752   9.7240759  93.5576287  39.2231438
   6.6373136  91.5917369  45.9900680   7.1127258  91.7845015  45.1819531
   5.7138701  91.6476555  45.7444063   1.2153353  83.6265213  44.9556514
   1.7335296  84.3626239  44.6303002   0.8608485  83.9329206  45.7903273
   1.4665947  80.0465495  40.4757410   1.7467700  79.3788684  41.1017837
   2.2516554  80.2394591  39.9632074   5.3374805  88.4683129  44.2228985
   6.2892228  88.5681227  44.2441209   5.1678255  87.6761398  44.7327070
   3.3589185  85.5538712  44.4088386   2.7639117  85.8343725  43.7134875
   3.0738881  86.0432613  45.1805127   7.8162883  91.6889249  43.3371285
   7.7839203  90.7505249  43.5230969   8.4263506  91.7673285  42.6037110
   7.9657371  88.4800292  43.3829568   7.4496420  87.6958749  43.1959497
   8.8497320  88.1519009  43.5476088   5.6268098  82.2241308  39.3425381
   5.4292919  81.9156396  40.2268713   6.2367804  82.9502947  39.4723311
  13.6339433  92.7505256  42.4777322  14.3642821  92.4890544  43.0385025
  13.0246378  92.0133978  42.5179390  11.7154730  90.8913118  43.0751773
  10.9887893  90.7569083  42.4668264  11.3002017  91.1989947  43.8808491
   1.3841745  82.1050215  37.0921912   1.9372783  82.5245668  37.7511935
   1.6211831  81.1785963  37.1344868   4.7620552  84.2150740  36.6000576
   4.1819221  84.8735544  36.2178629   4.4956485  83.3928084  36.1887994
   3.2124118  83.6155797  38.8021897   3.7123897  83.7272332  37.9936216
   3.8559726  83.3116850  39.4422705   3.5445430  86.3750830  35.6556925
   2.6571285  86.6600481  35.4377119   3.9599419  86.2144594  34.8084202
   6.8959966  86.3997351  39.3711264   7.6720356  86.8893804  39.6435881
   6.1708100  86.8255405  39.8283133   9.3332525  87.1124970  40.4285204
   9.9277016  86.8720706  39.7178513   9.4059108  86.3932101  41.0558741
   7.3291260  87.6795098  36.6957334   7.0728194  87.2791734  37.5265542
   6.7044128  88.3938892  36.5707473  11.6403597  90.4191171  39.2028626
  11.0803155  90.4884361  39.9760188  11.0347101  90.2432156  38.4828122
   1.3769478  79.1761033  36.9990999   0.6101874  78.6219520  37.1447681
   1.7880183  79.2482902  37.8605151  14.6005529  95.5759087  39.0528428
  14.9064406  94.7156450  38.7654343  15.3258134  96.1676707  38.8527422
  12.3059701  95.3757413  40.4757410  12.5861455  94.7080602  41.1017837
  13.0910308  95.5686508  39.9632074  12.2163232  94.5052951  36.9990999
  11.4495628  93.9511437  37.1447681  12.6273937  94.5774819  37.8605151
   2.3839264  54.2699851  26.4702384   1.6302973  53.7007249  26.3146388
   2.5186806  54.2362515  27.4173019   2.7945679  54.4275460  29.2022628
   3.5249068  54.1660749  29.7630332   2.1852625  53.6904182  29.2424696
   2.3865863  68.7717890  28.6203888   3.0244273  68.6524637  27.9167228
   2.2686706  69.7198734  28.6791840   1.9407131  66.4969344  25.6957096
   2.7270220  66.0788767  25.3447513   2.2045836  67.4015436  25.8638744
   7.3415558  66.4344577  26.5990075   8.0740730  65.8643794  26.8327904
   6.5854914  66.0466178  27.0396580   4.8640979  60.1466151  31.0584683
   4.5324303  61.0161562  30.8345898   4.2686592  59.8302435  31.7378714
   1.3572498  72.3478697  30.4580596   1.0573221  73.2503736  30.3496403
   1.0123558  72.0810880  31.3101749   4.7569642  64.8661237  28.1378033
   3.8486519  64.7976646  27.8436794   4.7057238  65.3433182  28.9659859
   6.6231288  63.0677676  29.9155907   5.9805669  63.3610209  29.2695702
   6.1186217  62.9530596  30.7209104   4.2771452  66.8140849  20.6041766
   5.1889308  67.0468236  20.4289464   3.7681099  67.3977893  20.0416845
   2.5612220  71.2365477  34.2403059   2.9695576  70.7947887  33.4957691
   1.8389481  70.6618104  34.4937252   2.8841034  71.7966667  27.9955348
   2.2549897  71.9612382  27.2931416   2.4966696  72.2108277  28.7666312
   6.7630266  72.7321105  25.3499712   6.0781304  73.1120007  24.7996745
   6.8474116  73.3416432  26.0831659   2.0642735  63.8342452  33.2717790
   1.8203667  64.5884512  32.7352065   2.3402666  64.2127800  34.1065037
   4.0181198  70.3781064  31.9495055   4.2298093  71.0212824  31.2729436
   3.9710946  69.5443381  31.4816985   1.6207427  62.9898885  28.8531627
   0.7591906  63.2880139  29.1448365   1.6469861  63.2069284  27.9212660
   5.1327026  73.2553020  30.1217413   5.9544470  72.8533207  29.8400094
   5.1289429  73.1521254  31.0733528  13.2233019  69.5991768  26.4702384
  12.4696727  69.0299166  26.3146388  13.3580560  69.5654433  27.4173019
   2.3381361  75.3731537  34.3038847   2.3199837  76.1940418  33.8119116
   3.2601281  75.2485612  34.5288988   1.9624110  57.9935732  30.6755997
   1.6188380  58.8837374  30.5995107   2.3303073  57.8037390  29.8125582
   1.9274393  67.9844343  19.1828432   1.4121017  68.7548948  19.4216819
   1.6551702  67.3109480  19.8061493   1.0420651  60.3640388  28.6405230
   0.5385446  60.3270523  27.8273035   1.3351258  61.2733130  28.7001887
   6.9008667  70.7376698  21.1181605   6.1238110  70.3987858  20.6736767
   7.5800148  70.7429321  20.4436570   1.7160696  65.8571436  21.0088213
   1.4110832  66.1717585  21.8598356   2.6691139  65.9352855  21.0515546
   5.1399974  70.2110679  27.7748213   4.4823649  70.9009941  27.8628342
   5.9440373  70.6007111  28.1182200   3.9505433  68.5655052  25.8252155
   4.4637315  69.1985044  26.3273865   4.6006657  67.9656248  25.4595515
   1.2121312  67.4395923  23.2013176   1.9593131  67.9517321  22.8920298
   1.4812901  67.1179976  24.0617569   4.7167229  73.5461054  23.9531298
   4.2629556  72.7051963  24.0096488   4.0861196  74.1822452  24.2906078
   3.6600149  64.4753040  25.1831965   2.9222906  63.9630426  25.5142208
   3.9126922  64.0353421  24.3715242   3.1600169  75.3837550  24.8881116
   3.4523143  75.9442607  24.1693482   3.6698789  75.6766111  25.6434275
   3.7611776  57.2529292  25.7773734   4.0670653  56.3926655  25.4899650
   4.4864381  57.8446912  25.5772728   1.5699427  66.6301969  32.8755198
   1.9248815  66.8573442  33.7349664   2.2171559  66.9620346  32.2532454
   7.2997164  69.7520405  23.5804527   7.1615063  69.9422001  22.6525717
   6.9433383  70.5139788  24.0372578   7.3266544  71.8196932  28.5915799
   7.7603051  71.7272221  29.4398853   8.0398125  71.7954432  27.9535815
   8.1882094  71.8620632  31.1248684   8.3817984  72.7666443  31.3707959
   8.0882712  71.4028051  31.9587269   3.2497202  72.0127375  36.6989565
   3.0982709  71.7837927  35.7819649   3.2401882  72.9697977  36.7120910
   4.9589409  75.0446498  34.7766047   4.9001955  74.3605718  34.1096630
   5.3608927  75.7865488  34.3246673   4.9606816  73.0086082  33.0080026
   4.0733595  72.6712003  33.1306425   5.5305367  72.2769113  33.2448792
   1.5894399  62.7153933  26.1278297   2.0863099  61.9623896  25.8079367
   0.8181381  62.7518250  25.5621506   9.4424157  68.4194299  27.7696588
   9.4314033  69.3019014  27.3990521   8.5741536  68.0665850  27.5751125
   0.9506653  77.5674368  32.1299428   1.6634625  78.2021833  32.0575330
   0.4596682  77.6638234  31.3139430   2.6724180  71.4725621  23.7016720
   1.7380459  71.5927083  23.5321424   2.8500848  70.5698087  23.4376730
   6.0596731  67.3142940  24.2366754   6.5257184  68.1470932  24.1627057
   6.5104232  66.8487922  24.9412013   4.1272962  73.6586761  21.2352906
   4.4032806  73.5443356  22.1446780   3.2577461  73.2604246  21.1965079
   4.0313394  59.6823527  28.2757655   3.1176474  59.9127754  28.4439862
   4.4606496  59.7661971  29.1271688   3.8019853  67.8713419  30.7757549
   3.1491303  68.1189326  30.1210002   4.1800233  67.0577557  30.4420027
   0.7627026  77.9073112  24.8785720   0.9449421  77.0894768  25.3413472
   1.5860013  78.1240804  24.4410610   3.4441083  74.7461415  37.3529857
   3.9880987  75.3591373  36.8584812   2.8627928  75.3040993  37.8696870
   1.7298596  77.8682133  28.4844885   1.6049735  77.0671873  27.9755830
   2.3877687  78.3628326  27.9958855   3.7933504  75.6691153  30.1124435
   2.8463840  75.5496504  30.0402761   4.1416277  74.7813651  30.1950696
   0.7979937  75.4643869  26.3128787   0.6504900  74.5360577  26.4936357
   1.6233431  75.4863960  25.8285862   4.4014059  76.2872428  27.3993660
   5.3260607  76.0815289  27.2618111   4.2329363  76.0388829  28.3083001
   4.1909376  76.8058095  22.7555751   4.3646253  76.2404518  22.0029604
   4.6838267  77.6058990  22.5735241  10.0448767  69.5694518  24.3746051
  10.4879913  68.8201844  23.9765174   9.1675277  69.5604655  23.9919783
   5.1784548  76.1224860  19.8552649   5.8735453  76.7431553  20.0739964
   5.5207698  75.2720211  20.1305027   7.0775971  73.5724565  21.3839980
   7.6027295  73.9111838  20.6589300   6.9898324  72.6371581  21.2003115
   6.7669877  74.2057469  36.6891178   5.9765421  74.1881608  36.1495678
   6.5303232  74.7445763  37.4440215   6.8867752  71.0549935  34.0023907
   6.9365757  70.8899943  34.9439430   6.7781676  70.1877194  33.6121788
   4.1771515  67.0380863  35.3183213   5.0781377  66.8987328  35.0267211
   4.2519489  67.2035318  36.2581391   8.3885949  73.4746877  34.2465928
   8.0970757  73.8376857  35.0829389   7.7758080  72.7613885  34.0679260
   9.5881631  71.0399757  26.7668499  10.4228523  71.4789561  26.9306059
   9.7240760  70.5638410  25.9476744   6.6373137  68.5979492  32.7145986
   7.1127259  68.7907138  31.9064838   5.7138703  68.6538677  32.4689370
   1.2153354  60.6327335  31.6801820   1.7335298  61.3688362  31.3548309
   0.8608487  60.9391328  32.5148579   1.4665948  57.0527618  27.2002717
   1.7467702  56.3850807  27.8263143   2.2516555  57.2456713  26.6877381
   5.3374806  65.4745252  30.9474292   6.2892229  65.5743349  30.9686516
   5.1678257  64.6823520  31.4572376   3.3589186  62.5600835  31.1333693
   2.7639118  62.8405848  30.4380181   3.0738882  63.0494736  31.9050434
   7.8162884  68.6951371  30.0616592   7.7839204  67.7567372  30.2476275
   8.4263508  68.7735408  29.3282416   7.9657373  65.4862415  30.1074875
   7.4496421  64.7020871  29.9204804   8.8497321  65.1581131  30.2721394
   5.6268100  59.2303430  26.0670687   5.4292921  58.9218519  26.9514019
   6.2367805  59.9565069  26.1968617  13.6339434  69.7567378  29.2022628
  14.3642822  69.4952666  29.7630332  13.0246379  69.0196100  29.2424696
  11.7154731  67.8975241  29.7997080  10.9887895  67.7631206  29.1913571
  11.3002018  68.2052069  30.6053798   1.3841746  59.1112337  23.8167219
   1.9372785  59.5307791  24.4757242   1.6211832  58.1848085  23.8590175
   4.7620553  61.2212862  23.3245883   4.1819222  61.8797666  22.9423935
   4.4956486  60.3990207  22.9133300   3.2124120  60.6217920  25.5267203
   3.7123898  60.7334455  24.7181522   3.8559728  60.3178973  26.1668012
   3.5445431  63.3812953  22.3802231   2.6571286  63.6662603  22.1622426
   3.9599420  63.2206716  21.5329508   6.8959967  63.4059474  26.0956570
   7.6720357  63.8955926  26.3681187   6.1708102  63.8317528  26.5528440
   9.3332526  64.1187093  27.1530511   9.9277017  63.8782829  26.4423819
   9.4059110  63.3994224  27.7804047   3.5186455  68.8967489  22.5952521
   3.4621656  69.3536040  21.7560154   4.0714797  68.1358173  22.4175364
   7.3291261  64.6857221  23.4202641   7.0728195  64.2853856  24.2510849
   6.7044129  65.4001014  23.2952780  11.6403599  67.4253294  25.9273932
  11.0803157  67.4946483  26.7005494  11.0347102  67.2494278  25.2073429
   4.5975342  73.5840157  18.5248711   5.4320946  73.1521355  18.3426186
   4.4359685  73.4122170  19.4525606   4.2521234  70.0872270  19.8905051
   4.1970038  69.9216541  18.9493495   3.6267290  70.7948303  20.0467240
   1.5667141  72.3921182  39.2158613   2.4358301  72.5661834  38.8545248
   1.0873893  73.2115599  39.0934343   1.3769479  56.1823156  23.7236306
   0.6101875  55.6281642  23.8692988   1.7880184  56.2545024  24.5850457
  13.2259617  84.1009808  28.6203888  13.8638027  83.9816555  27.9167228
  13.1080460  85.0490652  28.6791840  10.0349323  84.0537236  28.5565413
   9.6967835  83.9378301  27.6685948  10.9039092  83.6528401  28.5366419
  10.5169106  85.2072088  34.5151618  10.5057747  84.8124886  33.6432122
  10.6789746  84.4738160  35.1085390   7.2376368  87.9909199  33.4630802
   6.9466234  88.8954830  33.3477469   7.8733352  88.0325727  34.1774872
   8.1632574  85.3686048  30.0532162   8.7596147  85.1442070  29.3389125
   8.2207546  84.6270793  30.6557610  12.7800886  81.8261262  25.6957096
  13.5663975  81.4080685  25.3447513  13.0439590  82.7307354  25.8638744
  18.1809313  81.7636495  26.5990075  18.9134485  81.1935712  26.8327904
  17.4248669  81.3758095  27.0396580   9.7985433  84.1863736  23.7953417
   9.4343640  83.6594357  24.5066339  10.6552548  83.7962205  23.6219902
  15.7034733  75.4758069  31.0584683  15.3718058  76.3453480  30.8345898
  15.1080347  75.1594353  31.7378714  12.1966253  87.6770615  30.4580596
  11.8966976  88.5795654  30.3496403  11.8517312  87.4102798  31.3101749
   5.6478734  84.1284412  26.4917300   4.7229231  83.9960626  26.6994992
   5.8963147  84.9078631  26.9887243  15.5963396  80.1953155  28.1378033
  14.6880274  80.1268563  27.8436794  15.5450992  80.6725100  28.9659859
   3.0087545  83.7717685  27.3261089   3.1379926  84.0252164  28.2400501
   2.3284997  84.3645393  27.0065744   9.6704262  81.6142801  36.0812931
   8.8937596  82.1736721  36.0715795  10.3094825  82.0999584  36.6027801
  17.4625043  78.3969593  29.9155907  16.8199423  78.6902127  29.2695702
  16.9579971  78.2822514  30.7209104  15.1165207  82.1432767  20.6041766
  16.0283063  82.3760153  20.4289464  14.6074854  82.7269811  20.0416845
   7.9250635  84.4228254  35.6430898   8.6665319  84.9613298  35.3665721
   7.2187620  85.0494543  35.8002449  13.4005974  86.5657394  34.2403059
  13.8089330  86.1239805  33.4957691  12.6783236  85.9910022  34.4937252
   9.7537044  81.5030001  31.6136616  10.5998239  81.9269415  31.7571265
   9.6935682  80.8463626  32.3075179  13.7234789  87.1258585  27.9955348
  13.0943651  87.2904299  27.2931416  13.3360451  87.5400195  28.7666312
  17.6024021  88.0613023  25.3499712  16.9175059  88.4411924  24.7996745
  17.6867870  88.6708350  26.0831659  12.9036490  79.1634370  33.2717790
  12.6597421  79.9176430  32.7352065  13.1796420  79.5419717  34.1065037
  14.8574952  85.7072982  31.9495055  15.0691848  86.3504742  31.2729436
  14.8104701  84.8735299  31.4816985  12.4601181  78.3190803  28.8531627
  11.5985660  78.6172056  29.1448365  12.4863616  78.5361202  27.9212660
   9.2762751  86.8632993  25.2605433   9.7401096  87.1420696  24.4710055
   9.0119549  85.9616438  25.0778524   6.1686832  86.4104475  28.1985196
   6.7388189  86.8391743  27.5602681   6.7594944  86.1287059  28.8969382
   8.2131637  82.9856146  22.0694998   8.9155680  83.4377189  22.5368924
   7.8812265  82.3439964  22.6974891   6.6611998  81.5767902  36.4446208
   6.0310659  82.2584183  36.6781604   6.5548086  81.4650984  35.4999346
   1.9556971  81.2439698  27.3712132   1.1656025  81.4997227  26.8952242
   2.4468218  82.0588036  27.4764172  15.9720780  88.5844937  30.1217413
  16.7938224  88.1825125  29.8400094  15.9683183  88.4813172  31.0733528
   9.7377384  88.1328981  32.2778123   9.8021816  88.5949388  33.1136295
   9.0288308  87.5026346  32.4060433  24.0626773  84.9283686  26.4702384
  23.3090482  84.3591084  26.3146388  24.1974315  84.8946350  27.4173019
   5.9392741  75.8788668  38.8071459   5.5459687  75.3254867  39.4819103
   6.7558881  76.1899247  39.1977976   8.8560702  77.2946547  36.3991715
   9.5970415  77.8953700  36.3196178   9.0878625  76.5524185  35.8409758
   4.0002040  82.4802914  34.6769945   3.8855555  81.5788172  34.9777044
   3.1446558  82.7266611  34.3254761  11.0793878  90.4220655  36.2757445
  10.6357732  89.6357033  35.9578350  11.7411091  90.6099805  35.6101336
   5.8380999  91.9516456  30.8018124   6.3888424  91.8233520  30.0295118
   4.9992475  92.2511345  30.4513017  13.1775116  90.7023455  34.3038847
  13.1593591  91.5232336  33.8119116  14.0995036  90.5777530  34.5288988
   9.6348170  88.2167584  35.1462355  10.1676507  87.4555872  34.9161663
   9.1062251  87.9241236  35.8886510  12.8017865  73.3227650  30.6755997
  12.4582134  74.2129292  30.5995107  13.1696828  73.1329308  29.8125582
  12.7668148  83.3136261  19.1828432  12.2514771  84.0840866  19.4216819
  12.4945456  82.6401397  19.8061493  10.3515259  78.1585962  24.2413670
   9.4956855  77.7692812  24.0619309  10.7642211  78.2377923  23.3813456
  11.8814405  75.6932305  28.6405230  11.3779201  75.6562440  27.8273035
  12.1745012  76.6025048  28.7001887   8.1257291  75.7771035  27.6471412
   8.9910288  75.5813844  27.2877301   8.1934800  75.5481387  28.5740769
  17.7402422  86.0668616  21.1181605  16.9631865  85.7279775  20.6736767
  18.4193903  86.0721239  20.4436570  12.5554451  81.1863353  21.0088213
  12.2504586  81.5009502  21.8598356  13.5084893  81.2644773  21.0515546
  11.0000883  87.3453577  22.6581167  10.4722244  86.6106336  22.3454405
  10.4988385  88.1228253  22.4121135  15.9793729  85.5402597  27.7748213
  15.3217403  86.2301858  27.8628342  16.7834128  85.9299029  28.1182200
   5.7319610  78.0073243  25.0187779   6.3063362  77.7848424  24.2860972
   6.3190593  78.0761937  25.7716380  14.7899188  83.8946970  25.8252155
  15.3031069  84.5276962  26.3273865  15.4400411  83.2948165  25.4595515
   8.0342278  74.8814492  23.7462848   7.3806690  74.5663509  23.1219463
   7.9922752  74.2590232  24.4722671  11.2680018  81.3696425  28.0710496
  10.3502580  81.5911372  27.9132184  11.6840162  81.4442736  27.2122203
  12.0515066  82.7687841  23.2013176  12.7986885  83.2809238  22.8920298
  12.3206656  82.4471894  24.0617569  15.5560984  88.8752971  23.9531298
  15.1023311  88.0343881  24.0096488  14.9254950  89.5114370  24.2906078
  14.4993903  79.8044957  25.1831965  13.7616660  79.2922343  25.5142208
  14.7520677  79.3645339  24.3715242  13.9993923  90.7129468  24.8881116
  14.2916897  91.2734525  24.1693482  14.5092544  91.0058029  25.6434275
  14.6005531  72.5821209  25.7773734  14.9064407  71.7218573  25.4899650
  15.3258135  73.1738829  25.5772728   8.8726610  82.8775002  26.2849926
   8.9275220  81.9248839  26.2092402   8.0617812  83.0334441  26.7691224
   6.8118970  81.4952062  24.0440304   5.9986836  81.7946233  24.4505497
   7.3077964  81.1007751  24.7614787  12.4093182  81.9593887  32.8755198
  12.7642570  82.1865360  33.7349664  13.0565313  82.2912263  32.2532454
  18.1390919  85.0812322  23.5804527  18.0008818  85.2713918  22.6525717
  17.7827138  85.8431705  24.0372578   6.3033045  79.0670418  29.6601539
   6.9432424  78.9259177  28.9624503   5.4710576  78.7804931  29.2840141
  18.1660299  87.1488849  28.5915799  18.5996805  87.0564139  29.4398853
  18.8791879  87.1246350  27.9535815   7.0793349  88.3672848  25.7736532
   7.8733947  87.8723168  25.5719107   6.3685041  87.8390711  25.4104237
  11.8988193  90.7490944  30.1248899  11.9525216  91.3181880  30.8926615
  11.0302975  90.9192829  29.7602937   3.3061661  79.0370743  24.4374526
   3.5668479  79.9516076  24.3283687   4.1278834  78.5695185  24.5871139
   4.7786587  80.4508500  31.6073351   5.4509640  80.2425862  30.9586000
   3.9516373  80.2530586  31.1678583  19.0275848  87.1912550  31.1248684
  19.2211738  88.0958361  31.3707959  18.9276466  86.7319969  31.9587269
  10.6812159  77.0770441  33.6239012  10.0340074  77.7760390  33.5303488
  11.4513174  77.5106585  33.9915260  14.0890957  87.3419293  36.6989565
  13.9376463  87.1129845  35.7819649  14.0795636  88.2989894  36.7120910
  10.8576293  84.9151206  31.6835831  11.7868353  85.0662365  31.5104799
  10.4367323  85.0035226  30.8284478   9.6564625  88.9401870  29.4534369
   9.5175711  88.5720654  30.3260307   8.8679221  89.4549509  29.2818327
  11.2069840  88.3183473  26.8423207  10.8719673  88.2784243  27.7380857
  10.7073786  87.6528189  26.3693617   5.1814084  83.7251103  32.3675788
   5.0433882  82.9931342  32.9687327   6.0919008  83.6360003  32.0859976
   7.8096385  83.4371062  31.8559468   8.5196003  82.7964254  31.8146086
   7.7665693  83.6883957  32.7785648  15.7983163  90.3738415  34.7766047
  15.7395710  89.6897636  34.1096630  16.2002682  91.1157405  34.3246673
   6.5225319  80.4236280  33.6755107   5.9862676  79.9727018  34.3276703
   5.9342027  80.5582189  32.9325571  15.8000571  88.3377999  33.0080026
  14.9127349  88.0003921  33.1306425  16.3699122  87.6061031  33.2448792
   2.2564440  79.5592288  30.7608101   2.1722629  78.9517957  30.0258511
   1.4347146  80.0501306  30.7617598   9.3301724  92.9979452  29.9741270
   9.2571896  93.8034423  30.4860574   8.8879117  93.1971417  29.1489291
  12.4288154  78.0445851  26.1278297  12.9256853  77.2915813  25.8079367
  11.6575135  78.0810168  25.5621506  20.2817911  83.7486217  27.7696588
  20.2707787  84.6310932  27.3990521  19.4135291  83.3957768  27.5751125
  11.7900408  92.8966286  32.1299428  12.5028380  93.5313751  32.0575330
  11.2990436  92.9930152  31.3139430  13.5117935  86.8017538  23.7016720
  12.5774213  86.9219001  23.5321424  13.6894603  85.8990005  23.4376730
   9.0123123  80.1863234  25.8549981   8.6420910  79.6334275  26.5430887
   9.5082215  79.5821368  25.3024981  16.8990486  82.6434858  24.2366754
  17.3650938  83.4762849  24.1627057  17.3497986  82.1779839  24.9412013
   6.8412321  90.6460729  32.9504999   7.5421781  91.2797212  33.1034393
   6.3707436  90.9875461  32.1900638  14.9666717  88.9878679  21.2352906
  15.2426561  88.8735274  22.1446780  14.0971216  88.5896164  21.1965079
  14.8707149  75.0115445  28.2757655  13.9570228  75.2419671  28.4439862
  15.3000250  75.0953889  29.1271688  14.6413607  83.2005337  30.7757549
  13.9885057  83.4481244  30.1210002  15.0193987  82.3869475  30.4420027
  11.6020781  93.2365030  24.8785720  11.7843176  92.4186686  25.3413472
  12.4253767  93.4532722  24.4410610  10.6901180  83.9425148  37.2623587
  10.0141817  83.8419277  37.9325962  11.5128814  83.7864361  37.7259584
   2.4380039  90.1797084  29.8836102   3.0233476  89.4340772  30.0164006
   2.2404878  90.4901041  30.7672766   4.4088456  77.5967225  32.1003087
   4.4729783  78.4582056  31.6880485   4.3455576  76.9841227  31.3675446
   3.8840729  79.6690357  35.7476121   4.5112768  79.2867435  36.3613646
   3.0268648  79.4504559  36.1131814  14.2834837  90.0753333  37.3529857
  14.8274741  90.6883291  36.8584812  13.7021682  90.6332911  37.8696870
  12.5692350  93.1974051  28.4844885  12.4443490  92.3963790  27.9755830
  13.2271441  93.6920244  27.9958855   4.1900519  79.5522783  27.6622025
   3.4687104  80.1658751  27.5229498   4.9793774  80.0880548  27.5838671
  14.6327259  90.9983071  30.1124435  13.6857594  90.8788422  30.0402761
  14.9810032  90.1105569  30.1950696   6.9926832  76.8877210  33.9362677
   7.5161234  77.1339506  34.6988986   6.7739165  77.7197244  33.5165814
  11.6373692  90.7935787  26.3128787  11.4898654  89.8652494  26.4936357
  12.4627185  90.8155878  25.8285862   5.5035936  79.4453854  22.1709279
   5.8432009  79.9739775  21.4487887   5.9508057  79.7834260  22.9467846
  15.2407814  91.6164346  27.3993660  16.1654361  91.4107207  27.2618111
  15.0723117  91.3680747  28.3083001   8.1979377  77.8290905  31.6212347
   7.8576197  77.0298718  32.0233027   7.4918383  78.1292616  31.0489180
   8.8495849  74.9140217  30.0739670   9.6721918  74.4400695  29.9518561
   9.0933912  75.6930701  30.5738356   7.4904083  77.9428476  20.3702572
   8.2112446  78.3209728  19.8666289   6.8669388  78.6617352  20.4737550
  11.6335206  78.6473625  21.3060904  11.8498821  79.5298262  21.0049732
  11.1529273  78.2559838  20.5766546   6.3734428  81.6059338  27.8831649
   6.2279008  81.9199641  28.7755930   5.8959631  82.2244238  27.3302547
   8.2330811  78.5961886  27.9312538   8.2192379  77.7002979  27.5944836
   8.9503239  78.6032550  28.5650824  10.0856941  79.0299226  29.9765666
   9.8274719  79.9516297  29.9749996   9.5541982  78.6329661  30.6666130
  15.0303130  92.1350013  22.7555751  15.2040008  91.5696436  22.0029604
  15.5232021  92.9350908  22.5735241   7.6367706  77.4776266  23.2000109
   7.7583618  76.5492912  23.3990996   7.3469749  77.4914952  22.2878424
  10.5058897  75.1631177  26.3366828  10.5280594  75.2270510  25.3818808
  10.9226956  74.3235685  26.5307335  20.8842521  84.8986436  24.3746051
  21.3273667  84.1493761  23.9765174  20.0069031  84.8896572  23.9919783
  16.0178303  91.4516778  19.8552649  16.7129207  92.0723470  20.0739964
  16.3601453  90.6012129  20.1305027   1.6346112  83.2734578  33.7149467
   0.8927848  83.4217214  34.3014097   1.3138856  83.5342844  32.8516216
  17.9169726  88.9016483  21.3839980  18.4421050  89.2403756  20.6589300
  17.8292078  87.9663498  21.2003115   9.5789774  92.8150557  33.5129857
   9.8876901  92.5699703  34.3852556  10.3765256  93.0197195  33.0248727
   7.0484259  90.5126475  27.8157535   6.4264268  89.8497180  27.5159763
   7.7189125  90.5387607  27.1331183   7.1208786  78.9908263  37.4090041
   7.1696941  79.8670386  37.0267811   7.6631300  78.4485656  36.8361684
  17.6063632  89.5349387  36.6891178  16.8159175  89.5173526  36.1495678
  17.3696986  90.0737680  37.4440215  17.7261507  86.3841853  34.0023907
  17.7759512  86.2191861  34.9439430  17.6175430  85.5169112  33.6121788
  15.0165269  82.3672781  35.3183213  15.9175132  82.2279246  35.0267211
  15.0913244  82.5327236  36.2581391   9.3508074  79.7439636  34.1636400
   8.4811384  80.0373202  33.8918988   9.5867555  80.3280081  34.8843663
  19.2279704  88.8038795  34.2465928  18.9364512  89.1668775  35.0829389
  18.6151835  88.0905803  34.0679260  20.4275386  86.3691674  26.7668499
  21.2622277  86.8081478  26.9306059  20.5634515  85.8930328  25.9476744
  17.4766892  83.9271409  32.7145986  17.9521013  84.1199056  31.9064838
  16.5532457  83.9830595  32.4689370  12.0547108  75.9619253  31.6801820
  12.5729052  76.6980280  31.3548309  11.7002241  76.2683246  32.5148579
  12.3059702  72.3819535  27.2002717  12.5861456  71.7142724  27.8263143
  13.0910309  72.5748631  26.6877381  16.1768561  80.8037169  30.9474292
  17.1285984  80.9035267  30.9686516  16.0072011  80.0115438  31.4572376
  14.1982940  77.8892753  31.1333693  13.6032872  78.1697765  30.4380181
  13.9132637  78.3786653  31.9050434  18.6556639  84.0243289  30.0616592
  18.6232959  83.0859290  30.2476275  19.2657262  84.1027326  29.3282416
  18.8051127  80.8154332  30.1074875  18.2890176  80.0312789  29.9204804
  19.6891076  80.4873049  30.2721394  16.4661854  74.5595348  26.0670687
  16.2686675  74.2510436  26.9514019  17.0761560  75.2856987  26.1968617
  24.4733188  85.0859296  29.2022628  25.2036577  84.8244584  29.7630332
  23.8640134  84.3488018  29.2424696  22.5548486  83.2267158  29.7997080
  21.8281649  83.0923123  29.1913571  22.1395772  83.5343987  30.6053798
  10.3778662  86.9457088  37.5644453  11.2981671  87.1235687  37.7584499
  10.3428245  86.0013133  37.4124152   3.3740735  84.8558123  30.2067234
   3.5926744  85.7875231  30.2255268   3.7866508  84.4966097  30.9922038
  10.2944952  75.3626208  22.1942922   9.4845681  75.0173293  22.5698168
  10.9829369  75.0533752  22.7830534  12.2235501  74.4404255  23.8167219
  12.7766539  74.8599708  24.4757242  12.4605587  73.5140003  23.8590175
   8.2468600  80.4291329  39.5969983   8.1465327  81.3785685  39.5282074
   8.0290142  80.1009567  38.7246053  15.6014308  76.5504780  23.3245883
  15.0212977  77.2089584  22.9423935  15.3350240  75.7282125  22.9133300
  14.0517874  75.9509838  25.5267203  14.5517652  76.0626372  24.7181522
  14.6953482  75.6470891  26.1668012   8.1099870  83.8588467  38.4135044
   7.6266952  84.6588827  38.6198933   8.1960809  83.8696412  37.4602488
   4.0373207  87.7493002  30.4503478   4.9916461  87.7176944  30.3833410
   3.8385731  87.2883626  31.2653704   4.6272590  86.3194118  33.0174276
   5.4465479  86.8138197  33.0409113   4.9009397  85.4026086  32.9891843
  14.3839186  78.7104870  22.3802231  13.4965041  78.9954521  22.1622426
  14.7993175  78.5498634  21.5329508  17.7353722  78.7351391  26.0956570
  18.5114112  79.2247844  26.3681187  17.0101856  79.1609446  26.5528440
  20.1726280  79.4479011  27.1530511  20.7670771  79.2074747  26.4423819
  20.2452864  78.7286141  27.7804047  14.3580209  84.2259406  22.5952521
  14.3015411  84.6827958  21.7560154  14.9108552  83.4650091  22.4175364
  18.1685015  80.0149138  23.4202641  17.9121950  79.6145774  24.2510849
  17.5437883  80.7292932  23.2952780  22.4797353  82.7545211  25.9273932
  21.9196911  82.8238401  26.7005494  21.8740857  82.5786196  25.2073429
  15.4369097  88.9132074  18.5248711  16.2714701  88.4813273  18.3426186
  15.2753440  88.7414088  19.4525606  15.0914989  85.4164188  19.8905051
  15.0363793  85.2508459  18.9493495  14.4661044  86.1240221  20.0467240
  12.4060896  87.7213099  39.2158613  13.2752056  87.8953752  38.8545248
  11.9267647  88.5407516  39.0934343   8.4011114  74.9172297  19.4690369
   8.3889784  75.8614137  19.6258640   9.2934536  74.7342442  19.1749830
  12.2163234  71.5115073  23.7236306  11.4495630  70.9573560  23.8692988
  12.6273939  71.5836942  24.5850457   4.2204995  77.7999869  37.8141487
   5.0836456  77.4436674  38.0244812   3.6470405  77.4613764  38.5016891
  23.6194640  97.1553179  25.6957096  24.4057729  96.7372602  25.3447513
  23.8833345  98.0599271  25.8638744  29.0203067  97.0928412  26.5990075
  29.7528239  96.5227629  26.8327904  28.2642423  96.7050013  27.0396580
  26.5428488  90.8049987  31.0584683  26.2111812  91.6745398  30.8345898
  25.9474101  90.4886271  31.7378714  26.4357151  95.5245073  28.1378033
  25.5274028  95.4560481  27.8436794  26.3844747  96.0017018  28.9659859
  20.5098017  96.9434718  36.0812931  19.7331351  97.5028638  36.0715795
  21.1488580  97.4291501  36.6027801  28.3018797  93.7261511  29.9155907
  27.6593178  94.0194044  29.2695702  27.7973726  93.6114431  30.7209104
  25.9558961  97.4724684  20.6041766  26.8676817  97.7052071  20.4289464
  25.4468608  98.0561729  20.0416845  20.5930799  96.8321919  31.6136616
  21.4391994  97.2561332  31.7571265  20.5329436  96.1755543  32.3075179
  23.7430244  94.4926287  33.2717790  23.4991176  95.2468348  32.7352065
  24.0190175  94.8711635  34.1065037  23.2994936  93.6482720  28.8531627
  22.4379415  93.9463974  29.1448365  23.3257370  93.8653119  27.9212660
  34.9020528 100.2575604  26.4702384  34.1484236  99.6883002  26.3146388
  35.0368069 100.2238268  27.4173019  16.7786496  91.2080586  38.8071459
  16.3853441  90.6546784  39.4819103  17.5952636  91.5191164  39.1977976
  19.6954457  92.6238465  36.3991715  20.4364170  93.2245618  36.3196178
  19.9272379  91.8816103  35.8409758  23.6411619  88.6519568  30.6755997
  23.2975889  89.5421209  30.5995107  24.0090582  88.4621225  29.8125582
  21.1909013  93.4877880  24.2413670  20.3350610  93.0984730  24.0619309
  21.6035965  93.5669840  23.3813456  22.7208160  91.0224223  28.6405230
  22.2172955  90.9854358  27.8273035  23.0138767  91.9316966  28.7001887
  18.9651046  91.1062953  27.6471412  19.8304043  90.9105761  27.2877301
  19.0328555  90.8773304  28.5740769  23.3948205  96.5155271  21.0088213
  23.0898341  96.8301420  21.8598356  24.3478647  96.5936691  21.0515546
  16.5713365  93.3365161  25.0187779  17.1457117  93.1140342  24.2860972
  17.1584347  93.4053855  25.7716380  25.6292942  99.2238887  25.8252155
  26.1424824  99.8568879  26.3273865  26.2794166  98.6240083  25.4595515
  18.8736033  90.2106409  23.7462848  18.2200445  89.8955427  23.1219463
  18.8316507  89.5882150  24.4722671  22.1073773  96.6988343  28.0710496
  21.1896334  96.9203290  27.9132184  22.5233917  96.7734653  27.2122203
  22.8908821  98.0979759  23.2013176  23.6380640  98.6101156  22.8920298
  23.1600410  97.7763811  24.0617569  25.3387658  95.1336875  25.1831965
  24.6010415  94.6214261  25.5142208  25.5914431  94.6937257  24.3715242
  25.4399285  87.9113127  25.7773734  25.7458162  87.0510490  25.4899650
  26.1651890  88.5030747  25.5772728  23.2486936  97.2885804  32.8755198
  23.6036324  97.5157277  33.7349664  23.8959068  97.6204181  32.2532454
  17.1426800  94.3962335  29.6601539  17.7826179  94.2551094  28.9624503
  16.3104330  94.1096849  29.2840141  14.1455416  94.3662660  24.4374526
  14.4062233  95.2807993  24.3283687  14.9672588  93.8987103  24.5871139
  15.6180341  95.7800417  31.6073351  16.2903395  95.5717780  30.9586000
  14.7910128  95.5822503  31.1678583  21.5205913  92.4062358  33.6239012
  20.8733828  93.1052308  33.5303488  22.2906929  92.8398502  33.9915260
  17.3619073  95.7528198  33.6755107  16.8256430  95.3018936  34.3276703
  16.7735782  95.8874106  32.9325571  23.2681908  93.3737769  26.1278297
  23.7650608  92.6207731  25.8079367  22.4968890  93.4102085  25.5621506
  31.1211666  99.0778134  27.7696588  31.1101542  99.9602850  27.3990521
  30.2529045  98.7249685  27.5751125  19.8516877  95.5155152  25.8549981
  19.4814665  94.9626192  26.5430887  20.3475970  94.9113285  25.3024981
  27.7384240  97.9726775  24.2366754  28.2044693  98.8054767  24.1627057
  28.1891741  97.5071757  24.9412013  25.7100903  90.3407362  28.2757655
  24.7963983  90.5711589  28.4439862  26.1394005  90.4245806  29.1271688
  25.4807362  98.5297254  30.7757549  24.8278812  98.7773162  30.1210002
  25.8587741  97.7161392  30.4420027  15.2482211  92.9259143  32.1003087
  15.3123537  93.7873973  31.6880485  15.1849331  92.3133144  31.3675446
  14.7234483  94.9982275  35.7476121  15.3506522  94.6159352  36.3613646
  13.8662402  94.7796477  36.1131814  15.0294273  94.8814701  27.6622025
  14.3080859  95.4950669  27.5229498  15.8187529  95.4172466  27.5838671
  17.8320587  92.2169127  33.9362677  18.3554988  92.4631424  34.6988986
  17.6132920  93.0489162  33.5165814  16.3429691  94.7745772  22.1709279
  16.6825763  95.3031693  21.4487887  16.7901811  95.1126178  22.9467846
  19.0373132  93.1582822  31.6212347  18.6969952  92.3590635  32.0233027
  18.3312138  93.4584533  31.0489180  19.6889603  90.2432135  30.0739670
  20.5115673  89.7692613  29.9518561  19.9327667  91.0222619  30.5738356
  18.3297838  93.2720393  20.3702572  19.0506200  93.6501646  19.8666289
  17.7063142  93.9909270  20.4737550  22.4728961  93.9765542  21.3060904
  22.6892575  94.8590180  21.0049732  21.9923028  93.5851756  20.5766546
  19.0724565  93.9253803  27.9312538  19.0586134  93.0294897  27.5944836
  19.7896993  93.9324467  28.5650824  20.9250696  94.3591144  29.9765666
  20.6668474  95.2808214  29.9749996  20.3935736  93.9621578  30.6666130
  18.4761461  92.8068184  23.2000109  18.5977372  91.8784830  23.3990996
  18.1863503  92.8206870  22.2878424  21.3452651  90.4923094  26.3366828
  21.3674348  90.5562427  25.3818808  21.7620710  89.6527603  26.5307335
  31.7236276 100.2278354  24.3746051  32.1667422  99.4785679  23.9765174
  30.8462786 100.2188490  23.9919783  17.9602541  94.3200181  37.4090041
  18.0090696  95.1962304  37.0267811  18.5025055  93.7777574  36.8361684
  25.8559024  97.6964699  35.3183213  26.7568886  97.5571164  35.0267211
  25.9306998  97.8619154  36.2581391  20.1901829  95.0731554  34.1636400
  19.3205138  95.3665120  33.8918988  20.4261309  95.6571999  34.8843663
  31.2669140 101.6983592  26.7668499  32.1016032 102.1373396  26.9306059
  31.4028269 101.2222245  25.9476744  28.3160646  99.2563327  32.7145986
  28.7914768  99.4490973  31.9064838  27.3926212  99.3122513  32.4689370
  22.8940863  91.2911170  31.6801820  23.4122807  92.0272197  31.3548309
  22.5395996  91.5975164  32.5148579  23.1453457  87.7111453  27.2002717
  23.4255211  87.0434642  27.8263143  23.9304064  87.9040549  26.6877381
  27.0162315  96.1329087  30.9474292  27.9679738  96.2327185  30.9686516
  26.8465766  95.3407356  31.4572376  25.0376695  93.2184670  31.1333693
  24.4426627  93.4989683  30.4380181  24.7526391  93.7078571  31.9050434
  29.4950393  99.3535207  30.0616592  29.4626713  98.4151207  30.2476275
  30.1051017  99.4319243  29.3282416  29.6444882  96.1446250  30.1074875
  29.1283930  95.3604707  29.9204804  30.5284830  95.8164967  30.2721394
  27.3055608  89.8887266  26.0670687  27.1080430  89.5802354  26.9514019
  27.9155314  90.6148905  26.1968617  35.3126943 100.4151214  29.2022628
  36.0430331 100.1536502  29.7630332  34.7033888  99.6779935  29.2424696
  33.3942240  98.5559076  29.7997080  32.6675404  98.4215041  29.1913571
  32.9789527  98.8635905  30.6053798  21.1338707  90.6918126  22.1942922
  20.3239435  90.3465211  22.5698168  21.8223124  90.3825669  22.7830534
  23.0629255  89.7696173  23.8167219  23.6160294  90.1891626  24.4757242
  23.2999341  88.8431921  23.8590175  19.0862354  95.7583246  39.5969983
  18.9859081  96.7077603  39.5282074  18.8683896  95.4301485  38.7246053
  26.4408062  91.8796698  23.3245883  25.8606731  92.5381502  22.9423935
  26.1743995  91.0574042  22.9133300  24.8911629  91.2801755  25.5267203
  25.3911407  91.3918290  24.7181522  25.5347236  90.9762808  26.1668012
  25.2232940  94.0396788  22.3802231  24.3358795  94.3246439  22.1622426
  25.6386929  93.8790551  21.5329508  28.5747476  94.0643309  26.0956570
  29.3507866  94.5539762  26.3681187  27.8495611  94.4901363  26.5528440
  31.0120035  94.7770928  27.1530511  31.6064526  94.5366664  26.4423819
  31.0846619  94.0578059  27.7804047  29.0078770  95.3441056  23.4202641
  28.7515704  94.9437692  24.2510849  28.3831638  96.0584850  23.2952780
  33.3191108  98.0837129  25.9273932  32.7590666  98.1530318  26.7005494
  32.7134611  97.9078114  25.2073429  19.2404869  90.2464214  19.4690369
  19.2283539  91.1906054  19.6258640  20.1328291  90.0634360  19.1749830
  23.0556988  86.8406991  23.7236306  22.2889384  86.2865478  23.8692988
  23.4667693  86.9128860  24.5850457  15.0598749  93.1291787  37.8141487
  15.9230211  92.7728592  38.0244812  14.4864160  92.7905682  38.5016891
  36.2793040 103.2405045  25.7773734  36.5851916 102.3802408  25.4899650
  37.0045644 103.8322665  25.5772728  33.9847211 103.0403371  27.2002717
  34.2648965 102.3726560  27.8263143  34.7697818 103.2332466  26.6877381
  33.8950743 102.1698909  23.7236306  33.1283138 101.6157395  23.8692988
  34.3061448 102.2420777  24.5850457   2.3865864  45.7780013  15.3449195
   3.0244274  45.6586760  14.6412535   2.2686707  46.7260857  15.4037147
   1.3572499  49.3540820  17.1825903   1.0573223  50.2565859  17.0741710
   1.0123559  49.0873003  18.0347055   6.6231290  40.0739798  16.6401214
   5.9805670  40.3672332  15.9941008   6.1186218  39.9592719  17.4454410
   2.5612221  48.2427599  20.9648366   2.9695577  47.8010010  20.2202998
   1.8389482  47.6680227  21.2182559   2.8841036  48.8028790  14.7200655
   2.2549898  48.9674504  14.0176722   2.4966698  49.2170400  15.4911619
   6.7630268  49.7383228  12.0745018   6.0781306  50.1182129  11.5242052
   6.8474117  50.3478555  12.8076966   2.0642736  40.8404575  19.9963096
   1.8203668  41.5946635  19.4597372   2.3402667  41.2189922  20.8310343
   4.0181199  47.3843187  18.6740362   4.2298094  48.0274947  17.9974743
   3.9710947  46.5505503  18.2062292   5.1327027  50.2615142  16.8462719
   5.9544471  49.8595330  16.5645401   5.1289430  50.1583376  17.7978835
  13.2233020  46.6053891  13.1947691  12.4696729  46.0361289  13.0391695
  13.3580561  46.5716555  14.1418325   2.3381363  52.3793660  21.0284153
   2.3199838  53.2002541  20.5364422   3.2601283  52.2547735  21.2534294
   5.1399976  47.2172802  14.4993520   4.4823650  47.9072063  14.5873649
   5.9440375  47.6069234  14.8427506   3.1600170  52.3899673  11.6126423
   3.4523144  52.9504730  10.8938788   3.6698790  52.6828234  12.3679582
   1.5699429  43.6364091  19.6000505   1.9248816  43.8635565  20.4594971
   2.2171560  43.9682468  18.9777760   7.3266545  48.8259054  15.3161105
   7.7603052  48.7334343  16.1644160   8.0398126  48.8016555  14.6781121
   8.1882095  48.8682755  17.8493991   8.3817985  49.7728565  18.0953266
   8.0882713  48.4090174  18.6832576   3.2497204  49.0189498  23.4234871
   3.0982710  48.7900049  22.5064955   3.2401883  49.9760099  23.4366217
   4.9589410  52.0508620  21.5011353   4.9001956  51.3667840  20.8341936
   5.3608929  52.7927610  21.0491979   4.9606817  50.0148204  19.7325333
   4.0733596  49.6774126  19.8551732   5.5305369  49.2831235  19.9694098
   9.4424158  45.4256422  14.4941895   9.4314034  46.3081137  14.1235828
   8.5741537  45.0727972  14.2996432   0.9506654  54.5736491  18.8544735
   1.6634627  55.2083955  18.7820636   0.4596683  54.6700357  18.0384737
   3.8019854  44.8775542  17.5002856   3.1491304  45.1251449  16.8455309
   4.1800234  44.0639680  17.1665333   0.7627028  54.9135235  11.6031026
   0.9449422  54.0956891  12.0658779   1.5860014  55.1302927  11.1655916
   3.4441084  51.7523538  24.0775164   3.9880988  52.3653496  23.5830118
   2.8627929  52.3103116  24.5942177   1.7298597  54.8744256  15.2090191
   1.6049736  54.0733995  14.7001137   2.3877688  55.3690449  14.7204161
   3.7933505  52.6753276  16.8369741   2.8463841  52.5558627  16.7648068
   4.1416279  51.7875774  16.9196003   0.7979939  52.4705992  13.0374094
   0.6504901  51.5422699  13.2181664   1.6233432  52.4926083  12.5531169
   4.4014061  53.2934551  14.1238966   5.3260608  53.0877412  13.9863418
   4.2329364  53.0450952  15.0328308   6.7669878  51.2119592  23.4136485
   5.9765422  51.1943730  22.8740984   6.5303233  51.7507885  24.1685521
   6.8867754  48.0612058  20.7269213   6.9365758  47.8962065  21.6684736
   6.7781677  47.1939317  20.3367094   4.1771516  44.0442986  22.0428520
   5.0781379  43.9049451  21.7512518   4.2519490  44.2097441  22.9826698
   8.3885950  50.4809000  20.9711235   8.0970759  50.8438980  21.8074696
   7.7758082  49.7676008  20.7924567   9.5881633  48.0461879  13.4913805
  10.4228524  48.4851683  13.6551366   9.7240761  47.5700532  12.6722051
   6.6373139  45.6041614  19.4391293   7.1127260  45.7969260  18.6310144
   5.7138704  45.6600800  19.1934677   5.3374808  42.4807374  17.6719599
   6.2892230  42.5805472  17.6931823   5.1678258  41.6885643  18.1817683
   7.8162885  45.7013494  16.7861898   7.7839205  44.7629495  16.9721582
   8.4263509  45.7797531  16.0527723   7.9657374  42.4924537  16.8320181
   7.4496422  41.7082994  16.6450110   8.8497322  42.1643254  16.9966701
  13.6339435  46.7629501  15.9267935  14.3642824  46.5014789  16.4875638
  13.0246381  46.0258223  15.9670003  11.7154732  44.9037363  16.5242386
  10.9887896  44.7693328  15.9158878  11.3002019  45.2114192  17.3299104
  11.6403600  44.4315416  12.6519239  11.0803158  44.5008606  13.4250801
  11.0347103  44.2556401  11.9318735   1.5667143  49.3983304  25.9403920
   2.4358302  49.5723957  25.5790555   1.0873894  50.2177721  25.8179649
  13.2259618  61.1071930  15.3449195  13.8638028  60.9878678  14.6412535
  13.1080461  62.0552774  15.4037147  10.0349325  61.0599358  15.2810719
   9.6967836  60.9440423  14.3931254  10.9039093  60.6590524  15.2611725
  10.5169108  62.2134210  21.2396925  10.5057748  61.8187008  20.3677429
  10.6789747  61.4800283  21.8330696   7.2376369  64.9971322  20.1876109
   6.9466235  65.9016953  20.0722775   7.8733353  65.0387850  20.9020178
   8.1632576  62.3748170  16.7777469   8.7596148  62.1504193  16.0634431
   8.2207547  61.6332916  17.3802916  12.7800887  58.8323384  12.4202403
  13.5663976  58.4142807  12.0692820  13.0439591  59.7369476  12.5884051
  18.1809314  58.7698617  13.3235381  18.9134486  58.1997834  13.5573211
  17.4248670  58.3820218  13.7641887   9.7985434  61.1925859  10.5198724
   9.4343641  60.6656480  11.2311645  10.6552550  60.8024328  10.3465209
  15.7034734  52.4820191  17.7829990  15.3718059  53.3515602  17.5591205
  15.1080348  52.1656475  18.4624020  12.1966254  64.6832737  17.1825903
  11.8966977  65.5857776  17.0741710  11.8517313  64.4164921  18.0347055
   5.6478735  61.1346534  13.2162607   4.7229232  61.0022748  13.4240299
   5.8963149  61.9140754  13.7132549  15.5963398  57.2015278  14.8623340
  14.6880275  57.1330686  14.5682101  15.5450994  57.6787223  15.6905165
   3.0087546  60.7779808  14.0506396   3.1379928  61.0314287  14.9645808
   2.3284998  61.3707516  13.7311051   9.6704264  58.6204923  22.8058237
   8.8937598  59.1798843  22.7961102  10.3094827  59.1061706  23.3273107
  17.4625044  55.4031716  16.6401214  16.8199424  55.6964249  15.9941008
  16.9579973  55.2884636  17.4454410  15.1165208  59.1494889   7.3287073
  16.0283064  59.3822276   7.1534771  14.6074855  59.7331933   6.7662152
   7.9250636  61.4290377  22.3676204   8.6665320  61.9675421  22.0911028
   7.2187621  62.0556665  22.5247756  13.4005975  63.5719517  20.9648366
  13.8089332  63.1301928  20.2202998  12.6783237  62.9972145  21.2182559
   9.7537046  58.5092124  18.3381923  10.5998241  58.9331537  18.4816572
   9.6935683  57.8525748  19.0320486  13.7234790  64.1320708  14.7200655
  13.0943653  64.2966422  14.0176722  13.3360452  64.5462317  15.4911619
  17.6024022  65.0675146  12.0745018  16.9175060  65.4474047  11.5242052
  17.6867871  65.6770472  12.8076966  12.9036491  56.1696492  19.9963096
  12.6597423  56.9238553  19.4597372  13.1796421  56.5481840  20.8310343
  14.8574954  62.7135105  18.6740362  15.0691849  63.3566864  17.9974743
  14.8104702  61.8797421  18.2062292  12.4601183  55.3252925  15.5776934
  11.5985662  55.6234179  15.8693672  12.4863617  55.5423324  14.6457967
   9.2762752  63.8695116  11.9850740   9.7401098  64.1482819  11.1955362
   9.0119550  62.9678560  11.8023830   6.1686833  63.4166597  14.9230503
   6.7388190  63.8453866  14.2847987   6.7594945  63.1349182  15.6214689
   8.2131638  59.9918268   8.7940305   8.9155681  60.4439312   9.2614231
   7.8812267  59.3502087   9.4220198   6.6612000  58.5830025  23.1691514
   6.0310660  59.2646306  23.4026911   6.5548087  58.4713106  22.2244652
   1.9556972  58.2501821  14.0957438   1.1656026  58.5059349  13.6197549
   2.4468219  59.0650159  14.2009479  15.9720782  65.5907060  16.8462719
  16.7938225  65.1887247  16.5645401  15.9683184  65.4875294  17.7978835
   9.7377385  65.1391103  19.0023430   9.8021818  65.6011511  19.8381601
   9.0288309  64.5088468  19.1305739  24.0626775  61.9345808  13.1947691
  23.3090483  61.3653207  13.0391695  24.1974316  61.9008473  14.1418325
   5.9392742  52.8850791  25.5316765   5.5459688  52.3316989  26.2064409
   6.7558883  53.1961369  25.9223283   8.8560703  54.3008670  23.1237022
   9.5970417  54.9015823  23.0441484   9.0878626  53.5586308  22.5655064
   4.0002041  59.4865037  21.4015251   3.8855556  58.5850294  21.7022350
   3.1446559  59.7328734  21.0500068  11.0793879  67.4282777  23.0002752
  10.6357733  66.6419156  22.6823657  11.7411093  67.6161928  22.3346643
   5.8381000  68.9578579  17.5263431   6.3888425  68.8295642  16.7540425
   4.9992476  69.2573468  17.1758323  13.1775117  67.7085577  21.0284153
  13.1593592  68.5294458  20.5364422  14.0995037  67.5839652  21.2534294
   9.6348171  65.2229707  21.8707662  10.1676508  64.4617995  21.6406970
   9.1062252  64.9303359  22.6131816  12.8017866  50.3289773  17.4001303
  12.4582136  51.2191414  17.3240414  13.1696829  50.1391430  16.5370888
  12.7668149  60.3198384   5.9073739  12.2514772  61.0902988   6.1462126
  12.4945457  59.6463520   6.5306800  10.3515260  55.1648085  10.9658977
   9.4956856  54.7754935  10.7864616  10.7642212  55.2440045  10.1058762
  11.8814407  52.6994428  15.3650537  11.3779202  52.6624563  14.5518342
  12.1745013  53.6087171  15.4247193   8.1257293  52.7833158  14.3716718
   8.9910289  52.5875966  14.0122608   8.1934801  52.5543509  15.2986075
  17.7402423  63.0730738   7.8426912  16.9631866  62.7341898   7.3982074
  18.4193904  63.0783362   7.1681877  12.5554452  58.1925476   7.7333520
  12.2504588  58.5071625   8.5843663  13.5084894  58.2706896   7.7760853
  11.0000884  64.3515699   9.3826474  10.4722246  63.6168459   9.0699711
  10.4988387  65.1290376   9.1366442  15.9793730  62.5464720  14.4993520
  15.3217404  63.2363981  14.5873649  16.7834129  62.9361152  14.8427506
   5.7319612  55.0135365  11.7433085   6.3063363  54.7910547  11.0106278
   6.3190594  55.0824060  12.4961687  14.7899189  60.9009092  12.5497462
  15.3031071  61.5339084  13.0519171  15.4400413  60.3010288  12.1840822
   8.0342279  51.8876614  10.4708155   7.3806692  51.5725632   9.8464769
   7.9922753  51.2652355  11.1967978  11.2680020  58.3758548  14.7955802
  10.3502581  58.5973495  14.6377490  11.6840163  58.4504858  13.9367510
  12.0515067  59.7749964   9.9258483  12.7986886  60.2871361   9.6165605
  12.3206657  59.4534016  10.7862876  15.5560985  65.8815094  10.6776604
  15.1023312  65.0406004  10.7341795  14.9254952  66.5176492  11.0151385
  14.4993905  56.8107080  11.9077272  13.7616661  56.2984466  12.2387514
  14.7520678  56.3707461  11.0960549  13.9993924  67.7191590  11.6126423
  14.2916899  68.2796648  10.8938788  14.5092545  68.0120151  12.3679582
  14.6005532  49.5883332  12.5019041  14.9064409  48.7280695  12.2144956
  15.3258137  50.1800952  12.3018035   8.8726612  59.8837125  13.0095232
   8.9275221  58.9310961  12.9337709   8.0617814  60.0396564  13.4936531
   6.8118972  58.5014185  10.7685611   5.9986837  58.8008355  11.1750803
   7.3077966  58.1069873  11.4860093  12.4093183  58.9656009  19.6000505
  12.7642571  59.1927482  20.4594971  13.0565314  59.2974386  18.9777760
  18.1390920  62.0874445  10.3049834  18.0008819  62.2776041   9.3771023
  17.7827139  62.8493828  10.7617885   6.3033046  56.0732540  16.3846846
   6.9432426  55.9321299  15.6869809   5.4710577  55.7867054  16.0085448
  18.1660300  64.1550972  15.3161105  18.5996806  64.0626261  16.1644160
  18.8791880  64.1308472  14.6781121   7.0793350  65.3734971  12.4981838
   7.8733949  64.8785291  12.2964413   6.3685043  64.8452834  12.1349544
  11.8988195  67.7553066  16.8494206  11.9525217  68.3244002  17.6171922
  11.0302976  67.9254951  16.4848243   3.3061663  56.0432865  11.1619833
   3.5668480  56.9578198  11.0528993   4.1278835  55.5757308  11.3116446
   4.7786588  57.4570622  18.3318657   5.4509641  57.2487984  17.6831306
   3.9516375  57.2592708  17.8923890  19.0275849  64.1974673  17.8493991
  19.2211739  65.1020483  18.0953266  18.9276468  63.7382092  18.6832576
  10.6812160  54.0832563  20.3484318  10.0340075  54.7822513  20.2548795
  11.4513175  54.5168707  20.7160566  14.0890958  64.3481415  23.4234871
  13.9376464  64.1191967  22.5064955  14.0795637  65.3052017  23.4366217
  10.8576294  61.9213328  18.4081138  11.7868354  62.0724488  18.2350105
  10.4367324  62.0097349  17.5529784   9.6564626  65.9463993  16.1779676
   9.5175712  65.5782777  17.0505614   8.8679222  66.4611632  16.0063633
  11.2069841  65.3245595  13.5668513  10.8719674  65.2846365  14.4626163
  10.7073787  64.6590311  13.0938924   5.1814085  60.7313225  19.0921095
   5.0433883  59.9993464  19.6932634   6.0919009  60.6422125  18.8105282
   7.8096386  60.4433185  18.5804774   8.5196005  59.8026377  18.5391393
   7.7665694  60.6946079  19.5030955  15.7983165  67.3800538  21.5011353
  15.7395711  66.6959758  20.8341936  16.2002683  68.1219528  21.0491979
   6.5225320  57.4298403  20.4000414   5.9862677  56.9789141  21.0522010
   5.9342028  57.5644311  19.6570878  15.8000572  65.3440122  19.7325333
  14.9127351  65.0066044  19.8551732  16.3699123  64.6123153  19.9694098
   2.2564441  56.5654410  17.4853408   2.1722630  55.9580080  16.7503818
   1.4347148  57.0563429  17.4862904   9.3301725  70.0041574  16.6986576
   9.2571897  70.8096546  17.2105881   8.8879118  70.2033540  15.8734598
  12.4288155  55.0507974  12.8523603  12.9256855  54.2977936  12.5324673
  11.6575137  55.0872290  12.2866812  20.2817912  60.7548339  14.4941895
  20.2707789  61.6373055  14.1235828  19.4135292  60.4019890  14.2996432
  11.7900409  69.9028408  18.8544735  12.5028381  70.5375873  18.7820636
  11.2990437  69.9992274  18.0384737  13.5117936  63.8079661  10.4262027
  12.5774214  63.9281123  10.2566731  13.6894604  62.9052128  10.1622036
   9.0123124  57.1925357  12.5795288   8.6420911  56.6396397  13.2676193
   9.5082216  56.5883490  12.0270288  16.8990487  59.6496980  10.9612061
  17.3650939  60.4824972  10.8872363  17.3497988  59.1841962  11.6657319
   6.8412322  67.6522852  19.6750306   7.5421782  68.2859335  19.8279700
   6.3707437  67.9937583  18.9145945  14.9666718  65.9940802   7.9598213
  15.2426562  65.8797396   8.8692087  14.0971217  65.5958286   7.9210386
  14.8707150  52.0177567  15.0002962  13.9570230  52.2481794  15.1685169
  15.3000251  52.1016011  15.8516994  14.6413608  60.2067459  17.5002856
  13.9885059  60.4543367  16.8455309  15.0193988  59.3931597  17.1665333
  11.6020782  70.2427152  11.6031026  11.7843177  69.4248808  12.0658779
  12.4253768  70.4594845  11.1655916  10.6901181  60.9487270  23.9868893
  10.0141818  60.8481400  24.6571268  11.5128815  60.7926484  24.4504890
   2.4380040  67.1859207  16.6081408   3.0233477  66.4402895  16.7409313
   2.2404879  67.4963164  17.4918072   9.4323964  72.2554198  18.2226509
   9.9842272  72.4185819  18.9875594   9.7730158  72.8458636  17.5506534
   4.4088457  54.6029348  18.8248394   4.4729784  55.4644178  18.4125792
   4.3455578  53.9903349  18.0920752   3.8840730  56.6752480  22.4721428
   4.5112769  56.2929557  23.0858952   3.0268649  56.4566682  22.8377121
  14.2834839  67.0815455  24.0775164  14.8274743  67.6945413  23.5830118
  13.7021683  67.6395034  24.5942177  12.5692352  70.2036173  15.2090191
  12.4443491  69.4025913  14.7001137  13.2271443  70.6982367  14.7204161
   4.1900520  56.5584906  14.3867332   3.4687106  57.1720873  14.2474805
   4.9793776  57.0942671  14.3083977  14.6327260  68.0045193  16.8369741
  13.6857595  67.8850545  16.7648068  14.9810033  67.1167691  16.9196003
   6.9926833  53.8939332  20.6607983   7.5161235  54.1401629  21.4234293
   6.7739167  54.7259367  20.2411121  11.6373693  67.7997910  13.0374094
  11.4898656  66.8714617  13.2181664  12.4627187  67.8218000  12.5531169
   5.5035938  56.4515977   8.8954586   5.8432010  56.9801898   8.1733194
   5.9508058  56.7896383   9.6713152  15.2407815  68.6226468  14.1238966
  16.1654363  68.4169330  13.9863418  15.0723118  68.3742869  15.0328308
   8.1979378  54.8353027  18.3457654   7.8576199  54.0360840  18.7478334
   7.4918385  55.1354738  17.7734487   8.8495850  51.9202340  16.7984977
   9.6721919  51.4462818  16.6763867   9.0933914  52.6992824  17.2983663
   7.4904085  54.9490598   7.0947879   8.2112447  55.3271851   6.5911595
   6.8669389  55.6679475   7.1982856  11.6335208  55.6535747   8.0306211
  11.8498822  56.5360385   7.7295039  11.1529275  55.2621961   7.3011853
   6.3734429  58.6121460  14.6076955   6.2279010  58.9261763  15.5001237
   5.8959633  59.2306361  14.0547854   8.2330812  55.6024008  14.6557845
   8.2192381  54.7065102  14.3190143   8.9503240  55.6094672  15.2896131
  10.0856943  56.0361349  16.7010972   9.8274720  56.9578419  16.6995303
   9.5541983  55.6391783  17.3911437  15.0303131  69.1412136   9.4801058
  15.2040009  68.5758558   8.7274910  15.5232023  69.9413031   9.2980548
   7.6367708  54.4838389   9.9245415   7.7583619  53.5555035  10.1236303
   7.3469750  54.4977075   9.0123731  10.5058898  52.1693299  13.0612135
  10.5280595  52.2332632  12.1064115  10.9226957  51.3297808  13.2552641
  20.8842522  61.9048559  11.0991358  21.3273668  61.1555884  10.7010481
  20.0069033  61.8958695  10.7165090  16.0178304  68.4578900   6.5797956
  16.7129208  69.0785593   6.7985271  16.3601454  67.6074251   6.8550334
   1.6346113  60.2796701  20.4394773   0.8927849  60.4279336  21.0259404
   1.3138857  60.5404967  19.5761523  17.9169727  65.9078606   8.1085287
  18.4421051  66.2465878   7.3834607  17.8292079  64.9725621   7.9248422
   9.5789776  69.8212679  20.2375164   9.8876902  69.5761826  21.1097863
  10.3765258  70.0259318  19.7494034   7.0484260  67.5188598  14.5402842
   6.4264269  66.8559303  14.2405070   7.7189127  67.5449730  13.8576490
   7.1208787  55.9970386  24.1335348   7.1696943  56.8732509  23.7513117
   7.6631301  55.4547779  23.5606991  17.6063633  66.5411509  23.4136485
  16.8159177  66.5235648  22.8740984  17.3696988  67.0799803  24.1685521
  17.7261508  63.3903976  20.7269213  17.7759513  63.2253983  21.6684736
  17.6175431  62.5231235  20.3367094  15.0165270  59.3734904  22.0428520
  15.9175133  59.2341369  21.7512518  15.0913245  59.5389359  22.9826698
   9.3508076  56.7501758  20.8881706   8.4811385  57.0435325  20.6164295
   9.5867556  57.3342203  21.6088970  19.2279705  65.8100917  20.9711235
  18.9364513  66.1730898  21.8074696  18.6151836  65.0967925  20.7924567
  20.4275387  63.3753797  13.4913805  21.2622279  63.8143601  13.6551366
  20.5634516  62.8992450  12.6722051  17.4766893  60.9333532  19.4391293
  17.9521015  61.1261178  18.6310144  16.5532458  60.9892718  19.1934677
  12.0547110  52.9681375  18.4047127  12.5729053  53.7042402  18.0793615
  11.7002242  53.2745369  19.2393886  12.3059704  49.3881658  13.9248023
  12.5861457  48.7204847  14.5508450  13.0910311  49.5810754  13.4122687
  16.1768562  57.8099292  17.6719599  17.1285985  57.9097390  17.6931823
  16.0072012  57.0177560  18.1817683  14.1982942  54.8954875  17.8578999
  13.6032874  55.1759888  17.1625488  13.9132638  55.3848776  18.6295741
  18.6556640  61.0305412  16.7861898  18.6232960  60.0921412  16.9721582
  19.2657264  61.1089448  16.0527723  18.8051128  57.8216455  16.8320181
  18.2890177  57.0374912  16.6450110  19.6891077  57.4935172  16.9966701
  16.4661855  51.5657471  12.7915994  16.2686676  51.2572559  13.6759326
  17.0761561  52.2919110  12.9213924  24.4733190  62.0921418  15.9267935
  25.2036578  61.8306707  16.4875638  23.8640135  61.3550140  15.9670003
  22.5548487  60.2329281  16.5242386  21.8281650  60.0985246  15.9158878
  22.1395774  60.5406110  17.3299104  10.3778663  63.9519211  24.2889759
  11.2981673  64.1297810  24.4829806  10.3428246  63.0075256  24.1369458
   3.3740736  61.8620245  16.9312540   3.5926746  62.7937353  16.9500574
   3.7866510  61.5028220  17.7167344  10.2944954  52.3688331   8.9188229
   9.4845682  52.0235416   9.2943475  10.9829371  52.0595874   9.5075840
  12.2235502  51.4466377  10.5412525  12.7766540  51.8661831  11.2002548
  12.4605588  50.5202126  10.5835481   8.2468601  57.4353451  26.3215289
   8.1465328  58.3847808  26.2527380   8.0290143  57.1071690  25.4491359
  15.6014309  53.5566903  10.0491190  15.0212978  54.2151707   9.6669242
  15.3350242  52.7344247   9.6378607  14.0517875  52.9571960  12.2512510
  14.5517654  53.0688495  11.4426829  14.6953483  52.6533013  12.8913318
   8.1099871  60.8650590  25.1380351   7.6266953  61.6650950  25.3444240
   8.1960810  60.8758535  24.1847795   4.0373209  64.7555125  17.1748785
   4.9916462  64.7239067  17.1078716   3.8385732  64.2945748  17.9899011
   4.6272591  63.3256241  19.7419582   5.4465480  63.8200319  19.7654420
   4.9009398  62.4088209  19.7137150  14.3839187  55.7166993   9.1047538
  13.4965042  56.0016644   8.8867733  14.7993176  55.5560756   8.2574815
  17.7353723  55.7413514  12.8201877  18.5114113  56.2309966  13.0926494
  17.0101857  56.1671568  13.2773747  20.1726282  56.4541133  13.8775818
  20.7670773  56.2136869  13.1669126  20.2452865  55.7348264  14.5049354
  14.3580211  61.2321529   9.3197828  14.3015412  61.6890080   8.4805460
  14.9108553  60.4712214   9.1420671  18.1685017  57.0211261  10.1447948
  17.9121951  56.6207896  10.9756155  17.5437885  57.7355055  10.0198087
  22.4797354  59.7607334  12.6519239  21.9196912  59.8300523  13.4250801
  21.8740858  59.5848319  11.9318735  15.4369098  65.9194197   5.2494018
  16.2714702  65.4875395   5.0671493  15.2753441  65.7476211   6.1770912
  15.0914990  62.4226310   6.6150357  15.0363794  62.2570582   5.6738801
  14.4661045  63.1302343   6.7712547  12.4060897  64.7275222  25.9403920
  13.2752057  64.9015874  25.5790555  11.9267649  65.5469639  25.8179649
   6.5747077  71.8472323  17.6193354   7.4774324  71.8795933  17.9359849
   6.3484448  70.9172774  17.6339689  12.2163235  48.5177196  10.4481612
  11.4495631  47.9635683  10.5938295  12.6273940  48.5899065  11.3095764
   4.2204996  54.8061992  24.5386794   5.0836458  54.4498796  24.7490118
   3.6470407  54.4675886  25.2262198  24.0653373  76.4363848  15.3449195
  24.7031783  76.3170595  14.6412535  23.9474216  77.3844692  15.4037147
  20.8743079  76.3891276  15.2810719  20.5361591  76.2732341  14.3931254
  21.7432847  75.9882441  15.2611725  21.3562862  77.5426128  21.2396925
  21.3451503  77.1478926  20.3677429  21.5183502  76.8092200  21.8330696
  18.0770123  80.3263240  20.1876109  17.7859989  81.2308870  20.0722775
  18.7127108  80.3679767  20.9020178  19.0026330  77.7040088  16.7777469
  19.5989902  77.4796111  16.0634431  19.0601302  76.9624834  17.3802916
  23.6194641  74.1615302  12.4202403  24.4057731  73.7434725  12.0692820
  23.8833346  75.0661394  12.5884051  29.0203069  74.0990535  13.3235381
  29.7528241  73.5289752  13.5573211  28.2642424  73.7112135  13.7641887
  20.6379188  76.5217777  10.5198724  20.2737396  75.9948398  11.2311645
  21.4946304  76.1316246  10.3465209  26.5428489  67.8112109  17.7829990
  26.2111814  68.6807520  17.5591205  25.9474102  67.4948393  18.4624020
  23.0360008  80.0124655  17.1825903  22.7360732  80.9149694  17.0741710
  22.6911068  79.7456838  18.0347055  16.4872490  76.4638452  13.2162607
  15.5622986  76.3314666  13.4240299  16.7356903  77.2432671  13.7132549
  26.4357152  72.5307195  14.8623340  25.5274030  72.4622604  14.5682101
  26.3844748  73.0079140  15.6905165  13.8481301  76.1071726  14.0506396
  13.9773682  76.3606204  14.9645808  13.1678752  76.6999434  13.7311051
  20.5098018  73.9496841  22.8058237  19.7331352  74.5090761  22.7961102
  21.1488581  74.4353624  23.3273107  28.3018799  70.7323634  16.6401214
  27.6593179  71.0256167  15.9941008  27.7973727  70.6176554  17.4454410
  25.9558962  74.4786807   7.3287073  26.8676818  74.7114194   7.1534771
  25.4468609  75.0623851   6.7662152  18.7644390  76.7582294  22.3676204
  19.5059075  77.2967338  22.0911028  18.0581376  77.3848583  22.5247756
  24.2399730  78.9011435  20.9648366  24.6483086  78.4593845  20.2202998
  23.5176991  78.3264062  21.2182559  20.5930800  73.8384042  18.3381923
  21.4391995  74.2623455  18.4816572  20.5329438  73.1817666  19.0320486
  24.5628545  79.4612625  14.7200655  23.9337407  79.6258340  14.0176722
  24.1754207  79.8754235  15.4911619  28.4417777  80.3967063  12.0745018
  27.7568815  80.7765965  11.5242052  28.5261626  81.0062390  12.8076966
  23.7430245  71.4988410  19.9963096  23.4991177  72.2530470  19.4597372
  24.0190176  71.8773757  20.8310343  25.6968708  78.0427022  18.6740362
  25.9085603  78.6858782  17.9974743  25.6498456  77.2089339  18.2062292
  23.2994937  70.6544843  15.5776934  22.4379416  70.9526096  15.8693672
  23.3257372  70.8715242  14.6457967  20.1156506  79.1987033  11.9850740
  20.5794852  79.4774736  11.1955362  19.8513305  78.2970478  11.8023830
  17.0080588  78.7458515  14.9230503  17.5781945  79.1745783  14.2847987
  17.5988699  78.4641100  15.6214689  19.0525393  75.3210186   8.7940305
  19.7549436  75.7731229   9.2614231  18.7206021  74.6794005   9.4220198
  17.5005754  73.9121942  23.1691514  16.8704415  74.5938223  23.4026911
  17.3941842  73.8005024  22.2244652  12.7950726  73.5793738  14.0957438
  12.0049780  73.8351267  13.6197549  13.2861974  74.3942076  14.2009479
  26.8114536  80.9198978  16.8462719  27.6331980  80.5179165  16.5645401
  26.8076939  80.8167212  17.7978835  20.5771140  80.4683021  19.0023430
  20.6415572  80.9303428  19.8381601  19.8682063  79.8380386  19.1305739
  11.0788429  73.8324229  16.5272429  11.3296468  74.7171239  16.7930005
  11.6147978  73.6528830  15.7547521  34.9020529  77.2637726  13.1947691
  34.1484237  76.6945124  13.0391695  35.0368070  77.2300391  14.1418325
  16.7786497  68.2142708  25.5316765  16.3853442  67.6608907  26.2064409
  17.5952637  68.5253287  25.9223283  19.6954458  69.6300587  23.1237022
  20.4364171  70.2307741  23.0441484  19.9272381  68.8878225  22.5655064
  14.8395796  74.8156955  21.4015251  14.7249311  73.9142212  21.7022350
  13.9840314  75.0620651  21.0500068  21.9187634  82.7574695  23.0002752
  21.4751488  81.9711074  22.6823657  22.5804847  82.9453845  22.3346643
  16.6774755  84.2870497  17.5263431  17.2282180  84.1587560  16.7540425
  15.8386231  84.5865386  17.1758323  24.0168872  83.0377495  21.0284153
  23.9987347  83.8586376  20.5364422  24.9388792  82.9131570  21.2534294
  20.4741926  80.5521624  21.8707662  21.0070263  79.7909913  21.6406970
  19.9456007  80.2595276  22.6131816  23.6411621  65.6581690  17.4001303
  23.2975890  66.5483332  17.3240414  24.0090583  65.4683348  16.5370888
  23.6061903  75.6490301   5.9073739  23.0908527  76.4194906   6.1462126
  23.3339212  74.9755438   6.5306800  21.1909014  70.4940002  10.9658977
  20.3350611  70.1046853  10.7864616  21.6035966  70.5731963  10.1058762
  22.7208161  68.0286345  15.3650537  22.2172957  67.9916481  14.5518342
  23.0138768  68.9379088  15.4247193  18.9651047  68.1125075  14.3716718
  19.8304044  67.9167884  14.0122608  19.0328556  67.8835427  15.2986075
  28.5796178  78.4022656   7.8426912  27.8025620  78.0633816   7.3982074
  29.2587659  78.4075279   7.1681877  23.3948207  73.5217394   7.7333520
  23.0898342  73.8363543   8.5843663  24.3478649  73.5998813   7.7760853
  21.8394638  79.6807617   9.3826474  21.3116000  78.9460376   9.0699711
  21.3382141  80.4582293   9.1366442  26.8187484  77.8756637  14.4993520
  26.1611159  78.5655899  14.5873649  27.6227884  78.2653069  14.8427506
  16.5713366  70.3427283  11.7433085  17.1457118  70.1202465  11.0106278
  17.1584349  70.4115978  12.4961687  25.6292943  76.2301010  12.5497462
  26.1424825  76.8631002  13.0519171  26.2794167  75.6302206  12.1840822
  18.8736034  67.2168532  10.4708155  18.2200446  66.9017549   9.8464769
  18.8316508  66.5944272  11.1967978  22.1073774  73.7050466  14.7955802
  21.1896336  73.9265413  14.6377490  22.5233918  73.7796776  13.9367510
  22.8908822  75.1041881   9.9258483  23.6380641  75.6163278   9.6165605
  23.1600411  74.7825934  10.7862876  26.3954740  81.2107011  10.6776604
  25.9417067  80.3697921  10.7341795  25.7648706  81.8468410  11.0151385
  25.3387659  72.1398998  11.9077272  24.6010416  71.6276384  12.2387514
  25.5914433  71.6999379  11.0960549  24.8387679  83.0483508  11.6126423
  25.1310653  83.6088565  10.8938788  25.3486299  83.3412069  12.3679582
  25.4399286  64.9175250  12.5019041  25.7458163  64.0572613  12.2144956
  26.1651891  65.5092870  12.3018035  19.7120366  75.2129043  13.0095232
  19.7668976  74.2602879  12.9337709  18.9011568  75.3688482  13.4936531
  17.6512726  73.8306102  10.7685611  16.8380592  74.1300273  11.1750803
  18.1471720  73.4361791  11.4860093  23.2486938  74.2947927  19.6000505
  23.6036325  74.5219400  20.4594971  23.8959069  74.6266304  18.9777760
  28.9784675  77.4166363  10.3049834  28.8402573  77.6067959   9.3771023
  28.6220893  78.1785746  10.7617885  17.1426801  71.4024458  16.3846846
  17.7826180  71.2613217  15.6869809  16.3104331  71.1158971  16.0085448
  29.0054054  79.4842890  15.3161105  29.4390561  79.3918179  16.1644160
  29.7185635  79.4600390  14.6781121  17.9187105  80.7026888  12.4981838
  18.7127703  80.2077208  12.2964413  17.2078797  80.1744751  12.1349544
  22.7381949  83.0844984  16.8494206  22.7918971  83.6535920  17.6171922
  21.8696731  83.2546869  16.4848243  14.1455417  71.3724783  11.1619833
  14.4062235  72.2870116  11.0528993  14.9672590  70.9049225  11.3116446
  15.6180343  72.7862540  18.3318657  16.2903396  72.5779902  17.6831306
  14.7910129  72.5884626  17.8923890  29.8669604  79.5266590  17.8493991
  30.0605494  80.4312401  18.0953266  29.7670222  79.0674009  18.6832576
  21.5205915  69.4124481  20.3484318  20.8733830  70.1114431  20.2548795
  22.2906930  69.8460625  20.7160566  24.9284713  79.6773333  23.4234871
  24.7770219  79.4483885  22.5064955  24.9189392  80.6343935  23.4366217
  21.6970049  77.2505246  18.4081138  22.6262109  77.4016405  18.2350105
  21.2761079  77.3389267  17.5529784  20.4958381  81.2755910  16.1779676
  20.3569466  80.9074695  17.0505614  19.7072977  81.7903550  16.0063633
  22.0463596  80.6537513  13.5668513  21.7113428  80.6138283  14.4626163
  21.5467542  79.9882229  13.0938924  16.0207840  76.0605143  19.0921095
  15.8827638  75.3285382  19.6932634  16.9312763  75.9714043  18.8105282
  18.6490140  75.7725102  18.5804774  19.3589759  75.1318295  18.5391393
  18.6059449  76.0237997  19.5030955  26.6376919  82.7092456  21.5011353
  26.5789465  82.0251676  20.8341936  27.0396438  83.4511446  21.0491979
  17.3619074  72.7590320  20.4000414  16.8256431  72.3081059  21.0522010
  16.7735783  72.8936229  19.6570878  26.6394326  80.6732040  19.7325333
  25.7521105  80.3357961  19.8551732  27.2092877  79.9415071  19.9694098
  13.0958196  71.8946328  17.4853408  13.0116384  71.2871997  16.7503818
  12.2740902  72.3855346  17.4862904  20.1695480  85.3333492  16.6986576
  20.0965651  86.1388463  17.2105881  19.7272873  85.5325458  15.8734598
  23.2681910  70.3799891  12.8523603  23.7650609  69.6269854  12.5324673
  22.4968891  70.4164208  12.2866812  31.1211667  76.0840257  14.4941895
  31.1101543  76.9664972  14.1235828  30.2529046  75.7311808  14.2996432
  22.6294163  85.2320326  18.8544735  23.3422136  85.8667791  18.7820636
  22.1384192  85.3284192  18.0384737  24.3511690  79.1371579  10.4262027
  23.4167969  79.2573041  10.2566731  24.5288359  78.2344045  10.1622036
  19.8516878  72.5217274  12.5795288  19.4814666  71.9688315  13.2676193
  20.3475971  71.9175408  12.0270288  27.7384242  74.9788898  10.9612061
  28.2044694  75.8116890  10.8872363  28.1891742  74.5133879  11.6657319
  17.6806077  82.9814769  19.6750306  18.3815536  83.6151252  19.8279700
  17.2101192  83.3229501  18.9145945  25.8060473  81.3232719   7.9598213
  26.0820317  81.2089314   8.8692087  24.9364971  80.9250204   7.9210386
  25.7100904  67.3469485  15.0002962  24.7963984  67.5773712  15.1685169
  26.1394006  67.4307929  15.8516994  25.4807363  75.5359377  17.5002856
  24.8278813  75.7835284  16.8455309  25.8587743  74.7223515  17.1665333
  22.4414537  85.5719070  11.6031026  22.6236931  84.7540726  12.0658779
  23.2647523  85.7886762  11.1655916  21.5294936  76.2779188  23.9868893
  20.8535573  76.1773317  24.6571268  22.3522570  76.1218402  24.4504890
  13.2773795  82.5151124  16.6081408  13.8627232  81.7694812  16.7409313
  13.0798633  82.8255081  17.4918072  20.2717719  87.5846115  18.2226509
  20.8236027  87.7477737  18.9875594  20.6123912  88.1750553  17.5506534
  15.2482212  69.9321265  18.8248394  15.3123538  70.7936096  18.4125792
  15.1849332  69.3195267  18.0920752  14.7234485  72.0044398  22.4721428
  15.3506523  71.6221475  23.0858952  13.8662403  71.7858600  22.8377121
  25.1228593  82.4107373  24.0775164  25.6668497  83.0237331  23.5830118
  24.5415438  82.9686951  24.5942177  23.4086106  85.5328091  15.2090191
  23.2837245  84.7317831  14.7001137  24.0665197  86.0274284  14.7204161
  15.0294274  71.8876823  14.3867332  14.3080860  72.5012791  14.2474805
  15.8187530  72.4234588  14.3083977  25.4721014  83.3337111  16.8369741
  24.5251350  83.2142462  16.7648068  25.8203788  82.4459609  16.9196003
  17.8320588  69.2231250  20.6607983  18.3554990  69.4693546  21.4234293
  17.6132921  70.0551285  20.2411121  22.4767448  83.1289827  13.0374094
  22.3292410  82.2006535  13.2181664  23.3020941  83.1509918  12.5531169
  16.3429692  71.7807894   8.8954586  16.6825765  72.3093816   8.1733194
  16.7901812  72.1188300   9.6713152  26.0801570  83.9518386  14.1238966
  27.0048117  83.7461247  13.9863418  25.9116873  83.7034787  15.0328308
  19.0373133  70.1644945  18.3457654  18.6969953  69.3652758  18.7478334
  18.3312139  70.4646656  17.7734487  19.6889605  67.2494257  16.7984977
  20.5115674  66.7754736  16.6763867  19.9327668  68.0284741  17.2983663
  18.3297839  70.2782516   7.0947879  19.0506202  70.6563769   6.5911595
  17.7063143  70.9971393   7.1982856  22.4728962  70.9827665   8.0306211
  22.6892576  71.8652303   7.7295039  21.9923029  70.5913878   7.3011853
  17.2128183  73.9413378  14.6076955  17.0672764  74.2553681  15.5001237
  16.7353387  74.5598278  14.0547854  19.0724566  70.9315926  14.6557845
  19.0586135  70.0357019  14.3190143  19.7896994  70.9386590  15.2896131
  20.9250697  71.3653266  16.7010972  20.6668475  72.2870337  16.6995303
  20.3935737  70.9683701  17.3911437  25.8696886  84.4704053   9.4801058
  26.0433763  83.9050476   8.7274910  26.3625777  85.2704948   9.2980548
  11.6873846  76.4818722  17.5464617  11.1427314  77.2578530  17.6784891
  12.5653195  76.8289527  17.3883738  18.4761462  69.8130306   9.9245415
  18.5977373  68.8846953  10.1236303  18.1863505  69.8268992   9.0123731
  21.3452653  67.4985217  13.0612135  21.3674349  67.5624550  12.1064115
  21.7620712  66.6589725  13.2552641  31.7236277  77.2340476  11.0991358
  32.1667423  76.4847802  10.7010481  30.8462787  77.2250613  10.7165090
  26.8572058  83.7870818   6.5797956  27.5522963  84.4077510   6.7985271
  27.1995208  82.9366169   6.8550334  12.4739867  75.6088619  20.4394773
  11.7321603  75.7571254  21.0259404  12.1532612  75.8696884  19.5761523
  28.7563481  81.2370523   8.1085287  29.2814805  81.5757796   7.3834607
  28.6685834  80.3017539   7.9248422  20.4183530  85.1504597  20.2375164
  20.7270657  84.9053744  21.1097863  21.2159012  85.3551235  19.7494034
  17.8878014  82.8480516  14.5402842  17.2658024  82.1851221  14.2405070
  18.5582881  82.8741648  13.8576490  17.9602542  71.3262304  24.1335348
  18.0090697  72.2024427  23.7513117  18.5025056  70.7839697  23.5606991
  28.4457387  81.8703427  23.4136485  27.6552931  81.8527566  22.8740984
  28.2090742  82.4091721  24.1685521  28.5655262  78.7195893  20.7269213
  28.6153267  78.5545901  21.6684736  28.4569186  77.8523152  20.3367094
  25.8559025  74.7026821  22.0428520  26.7568888  74.5633286  21.7512518
  25.9306999  74.8681276  22.9826698  20.1901830  72.0793676  20.8881706
  19.3205140  72.3727242  20.6164295  20.4261311  72.6634121  21.6088970
  30.0673459  81.1392835  20.9711235  29.7758268  81.5022815  21.8074696
  29.4545591  80.4259843  20.7924567  31.2669142  78.7045715  13.4913805
  32.1016033  79.1435519  13.6551366  31.4028270  78.2284368  12.6722051
  28.3160648  76.2625449  19.4391293  28.7914769  76.4553096  18.6310144
  27.3926213  76.3184635  19.1934677  22.8940864  68.2973293  18.4047127
  23.4122808  69.0334320  18.0793615  22.5395997  68.6037286  19.2393886
  23.1453458  64.7173576  13.9248023  23.4255212  64.0496765  14.5508450
  23.9304065  64.9102671  13.4122687  27.0162317  73.1391210  17.6719599
  27.9679739  73.2389307  17.6931823  26.8465767  72.3469478  18.1817683
  25.0376696  70.2246793  17.8578999  24.4426628  70.5051806  17.1625488
  24.7526393  70.7140694  18.6295741  29.4950394  76.3597329  16.7861898
  29.4626714  75.4213330  16.9721582  30.1051018  76.4381366  16.0527723
  29.6444883  73.1508373  16.8320181  29.1283931  72.3666829  16.6450110
  30.5284831  72.8227089  16.9966701  27.3055610  66.8949388  12.7915994
  27.1080431  66.5864476  13.6759326  27.9155315  67.6211027  12.9213924
  35.3126944  77.4213336  15.9267935  36.0430333  77.1598624  16.4875638
  34.7033890  76.6842058  15.9670003  33.3942241  75.5621199  16.5242386
  32.6675405  75.4277164  15.9158878  32.9789528  75.8698027  17.3299104
  21.2172418  79.2811128  24.2889759  22.1375427  79.4589727  24.4829806
  21.1822001  78.3367174  24.1369458  14.2134490  77.1912163  16.9312540
  14.4320500  78.1229271  16.9500574  14.6260264  76.8320137  17.7167344
  21.1338708  67.6980248   8.9188229  20.3239436  67.3527333   9.2943475
  21.8223125  67.3887792   9.5075840  23.0629256  66.7758295  10.5412525
  23.6160295  67.1953749  11.2002548  23.2999343  65.8494043  10.5835481
  19.0862356  72.7645369  26.3215289  18.9859082  73.7139726  26.2527380
  18.8683898  72.4363608  25.4491359  26.4408063  68.8858820  10.0491190
  25.8606733  69.5443624   9.6669242  26.1743996  68.0636165   9.6378607
  24.8911630  68.2863878  12.2512510  25.3911408  68.3980413  11.4426829
  25.5347238  67.9824931  12.8913318  18.9493626  76.1942508  25.1380351
  18.4660707  76.9942868  25.3444240  19.0354565  76.2050452  24.1847795
  14.8766963  80.0847042  17.1748785  15.8310217  80.0530985  17.1078716
  14.6779487  79.6237666  17.9899011  15.4666345  78.6548158  19.7419582
  16.2859234  79.1492237  19.7654420  15.7403153  77.7380127  19.7137150
  25.2232941  71.0458911   9.1047538  24.3358797  71.3308561   8.8867733
  25.6386931  70.8852674   8.2574815  28.5747478  71.0705432  12.8201877
  29.3507868  71.5601884  13.0926494  27.8495612  71.4963486  13.2773747
  31.0120036  71.7833051  13.8775818  31.6064527  71.5428787  13.1669126
  31.0846620  71.0640181  14.5049354  25.1973965  76.5613447   9.3197828
  25.1409167  77.0181998   8.4805460  25.7502308  75.8004131   9.1420671
  29.0078771  72.3503178  10.1447948  28.7515705  71.9499814  10.9756155
  28.3831639  73.0646972  10.0198087  33.3191109  75.0899252  12.6519239
  32.7590667  75.1592441  13.4250801  32.7134612  74.9140236  11.9318735
  26.2762852  81.2486115   5.2494018  27.1108456  80.8167313   5.0671493
  26.1147195  81.0768128   6.1770912  25.9308745  77.7518228   6.6150357
  25.8757548  77.5862499   5.6738801  25.3054800  78.4594261   6.7712547
  10.7201260  72.9886292  20.4411779  11.3660123  72.4785246  20.9299005
  10.5118411  73.7254974  21.0155205  23.2454652  80.0567140  25.9403920
  24.1145811  80.2307792  25.5790555  22.7661403  80.8761557  25.8179649
  19.2404870  67.2526337   6.1935676  19.2283540  68.1968177   6.3503946
  20.1328292  67.0696482   5.8995137  17.4140832  87.1764241  17.6193354
  18.3168079  87.2087851  17.9359849  17.1878202  86.2464692  17.6339689
  23.0556989  63.8469114  10.4481612  22.2889385  63.2927600  10.5938295
  23.4667694  63.9190982  11.3095764  15.0598751  70.1353909  24.5386794
  15.9230212  69.7790714  24.7490118  14.4864161  69.7967804  25.2262198
  34.9047127  91.7655766  15.3449195  35.5425537  91.6462513  14.6412535
  34.7867970  92.7136610  15.4037147  31.7136834  91.7183194  15.2810719
  31.3755345  91.6024258  14.3931254  32.5826602  91.3174359  15.2611725
  32.1956617  92.8718046  21.2396925  32.1845257  92.4770844  20.3677429
  32.3577256  92.1384118  21.8330696  28.9163878  95.6555157  20.1876109
  28.6253744  96.5600788  20.0722775  29.5520862  95.6971685  20.9020178
  29.8420085  93.0332006  16.7777469  30.4383657  92.8088028  16.0634431
  29.8995056  92.2916751  17.3802916  34.4588396  89.4907220  12.4202403
  35.2451485  89.0726643  12.0692820  34.7227100  90.3953312  12.5884051
  39.8596823  89.4282453  13.3235381  40.5921995  88.8581670  13.5573211
  39.1036179  89.0404053  13.7641887  31.4772943  91.8509694  10.5198724
  31.1131150  91.3240315  11.2311645  32.3340059  91.4608163  10.3465209
  37.3822243  83.1404027  17.7829990  37.0505568  84.0099438  17.5591205
  36.7867857  82.8240311  18.4624020  33.8753763  95.3416573  17.1825903
  33.5754486  96.2441612  17.0741710  33.5304822  95.0748756  18.0347055
  27.3266244  91.7930370  13.2162607  26.4016741  91.6606584  13.4240299
  27.5750658  92.5724589  13.7132549  37.2750907  87.8599113  14.8623340
  36.3667784  87.7914521  14.5682101  37.2238503  88.3371058  15.6905165
  24.6875055  91.4363643  14.0506396  24.8167437  91.6898122  14.9645808
  24.0072507  92.0291351  13.7311051  31.3491773  89.2788759  22.8058237
  30.5725107  89.8382679  22.7961102  31.9882336  89.7645542  23.3273107
  39.1412553  86.0615551  16.6401214  38.4986933  86.3548085  15.9941008
  38.6367482  85.9468472  17.4454410  36.7952717  89.8078725   7.3287073
  37.7070573  90.0406111   7.1534771  36.2862364  90.3915769   6.7662152
  29.6038145  92.0874212  22.3676204  30.3452829  92.6259256  22.0911028
  28.8975130  92.7140501  22.5247756  35.0793484  94.2303352  20.9648366
  35.4876840  93.7885763  20.2202998  34.3570746  93.6555980  21.2182559
  31.4324555  89.1675959  18.3381923  32.2785750  89.5915373  18.4816572
  31.3723192  88.5109584  19.0320486  35.4022299  94.7904543  14.7200655
  34.7731162  94.9550257  14.0176722  35.0147961  95.2046153  15.4911619
  39.2811531  95.7258981  12.0745018  38.5962569  96.1057882  11.5242052
  39.3655380  96.3354308  12.8076966  34.5824000  86.8280328  19.9963096
  34.3384932  87.5822388  19.4597372  34.8583930  87.2065675  20.8310343
  36.5362463  93.3718940  18.6740362  36.7479358  94.0150700  17.9974743
  36.4892211  92.5381256  18.2062292  34.1388692  85.9836761  15.5776934
  33.2773171  86.2818014  15.8693672  34.1651126  86.2007159  14.6457967
  30.9550261  94.5278951  11.9850740  31.4188607  94.8066654  11.1955362
  30.6907059  93.6262396  11.8023830  27.8474342  94.0750433  14.9230503
  28.4175699  94.5037701  14.2847987  28.4382454  93.7933017  15.6214689
  29.8919147  90.6502104   8.7940305  30.5943190  91.1023147   9.2614231
  29.5599776  90.0085922   9.4220198  28.3399509  89.2413860  23.1691514
  27.7098169  89.9230141  23.4026911  28.2335596  89.1296942  22.2244652
  23.6344481  88.9085656  14.0957438  22.8443535  89.1643185  13.6197549
  24.1255728  89.7233994  14.2009479  37.6508291  96.2490895  16.8462719
  38.4725734  95.8471083  16.5645401  37.6470693  96.1459130  17.7978835
  31.4164894  95.7974939  19.0023430  31.4809327  96.2595346  19.8381601
  30.7075818  95.1672304  19.1305739  21.9182184  89.1616147  16.5272429
  22.1690222  90.0463157  16.7930005  22.4541732  88.9820748  15.7547521
  45.7414284  92.5929644  13.1947691  44.9877992  92.0237042  13.0391695
  45.8761825  92.5592308  14.1418325  27.6180251  83.5434626  25.5316765
  27.2247197  82.9900825  26.2064409  28.4346392  83.8545204  25.9223283
  30.5348212  84.9592505  23.1237022  31.2757926  85.5599658  23.0441484
  30.7666135  84.2170143  22.5655064  25.6789550  90.1448872  21.4015251
  25.5643065  89.2434130  21.7022350  24.8234068  90.3912569  21.0500068
  32.7581388  98.0866613  23.0002752  32.3145242  97.3002991  22.6823657
  33.4198602  98.2745763  22.3346643  27.5168509  99.6162414  17.5263431
  28.0675934  99.4879478  16.7540425  26.6779985  99.9157303  17.1758323
  34.8562626  98.3669413  21.0284153  34.8381101  99.1878294  20.5364422
  35.7782546  98.2423488  21.2534294  31.3135680  95.8813542  21.8707662
  31.8464017  95.1201830  21.6406970  30.7849761  95.5887194  22.6131816
  34.4805375  80.9873608  17.4001303  34.1369645  81.8775250  17.3240414
  34.8484338  80.7975266  16.5370888  34.4455658  90.9782219   5.9073739
  33.9302281  91.7486824   6.1462126  34.1732966  90.3047355   6.5306800
  32.0302769  85.8231920  10.9658977  31.1744365  85.4338770  10.7864616
  32.4429721  85.9023881  10.1058762  33.5601916  83.3578263  15.3650537
  33.0566711  83.3208398  14.5518342  33.8532522  84.2671006  15.4247193
  29.8044801  83.4416993  14.3716718  30.6697798  83.2459802  14.0122608
  29.8722310  83.2127345  15.2986075  39.4189932  93.7314574   7.8426912
  38.6419375  93.3925733   7.3982074  40.0981413  93.7367197   7.1681877
  34.2341961  88.8509311   7.7333520  33.9292097  89.1655460   8.5843663
  35.1872403  88.9290731   7.7760853  32.6788393  95.0099535   9.3826474
  32.1509755  94.2752294   9.0699711  32.1775896  95.7874211   9.1366442
  37.6581239  93.2048555  14.4993520  37.0004913  93.8947816  14.5873649
  38.4621638  93.5944987  14.8427506  27.4107121  85.6719201  11.7433085
  27.9850872  85.4494382  11.0106278  27.9978103  85.7407895  12.4961687
  36.4686698  91.5592928  12.5497462  36.9818580  92.1922920  13.0519171
  37.1187922  90.9594123  12.1840822  29.7129788  82.5460450  10.4708155
  29.0594201  82.2309467   9.8464769  29.6710262  81.9236190  11.1967978
  32.9467529  89.0342383  14.7955802  32.0290090  89.2557330  14.6377490
  33.3627672  89.1088694  13.9367510  33.7302576  90.4333799   9.9258483
  34.4774395  90.9455196   9.6165605  33.9994166  90.1117852  10.7862876
  37.2348494  96.5398929  10.6776604  36.7810821  95.6989839  10.7341795
  36.6042461  97.1760328  11.0151385  36.1781414  87.4690915  11.9077272
  35.4404170  86.9568301  12.2387514  36.4308187  87.0291297  11.0960549
  35.6781433  98.3775426  11.6126423  35.9704408  98.9380483  10.8938788
  36.1880054  98.6703987  12.3679582  36.2793041  80.2467167  12.5019041
  36.5851918  79.3864531  12.2144956  37.0045646  80.8384787  12.3018035
  30.5514121  90.5420960  13.0095232  30.6062730  89.5894797  12.9337709
  29.7405323  90.6980399  13.4936531  28.4906481  89.1598020  10.7685611
  27.6774346  89.4592191  11.1750803  28.9865475  88.7653709  11.4860093
  34.0880692  89.6239844  19.6000505  34.4430080  89.8511318  20.4594971
  34.7352823  89.9558221  18.9777760  39.8178429  92.7458280  10.3049834
  39.6796328  92.9359876   9.3771023  39.4614648  93.5077663  10.7617885
  27.9820555  86.7316376  16.3846846  28.6219935  86.5905135  15.6869809
  27.1498086  86.4450889  16.0085448  39.8447809  94.8134807  15.3161105
  40.2784315  94.7210096  16.1644160  40.5579389  94.7892308  14.6781121
  28.7580859  96.0318806  12.4981838  29.5521458  95.5369126  12.2964413
  28.0472552  95.5036669  12.1349544  33.5775704  98.4136901  16.8494206
  33.6312726  98.9827838  17.6171922  32.7090485  98.5838787  16.4848243
  24.9849172  86.7016701  11.1619833  25.2455989  87.6162034  11.0528993
  25.8066344  86.2341143  11.3116446  26.4574097  88.1154458  18.3318657
  27.1297150  87.9071820  17.6831306  25.6303884  87.9176544  17.8923890
  40.7063358  94.8558508  17.8493991  40.8999248  95.7604319  18.0953266
  40.6063976  94.3965927  18.6832576  32.3599669  84.7416399  20.3484318
  31.7127584  85.4406348  20.2548795  33.1300684  85.1752543  20.7160566
  35.7678467  95.0065251  23.4234871  35.6163973  94.7775802  22.5064955
  35.7583146  95.9635852  23.4366217  32.5363803  92.5797164  18.4081138
  33.4655863  92.7308323  18.2350105  32.1154833  92.6681184  17.5529784
  31.3352135  96.6047828  16.1779676  31.1963221  96.2366612  17.0505614
  30.5466731  97.1195467  16.0063633  32.8857350  95.9829431  13.5668513
  32.5507183  95.9430201  14.4626163  32.3861296  95.3174147  13.0938924
  26.8601594  91.3897061  19.0921095  26.7221392  90.6577299  19.6932634
  27.7706518  91.3005961  18.8105282  29.4883895  91.1017020  18.5804774
  30.1983513  90.4610212  18.5391393  29.4453203  91.3529915  19.5030955
  37.4770674  98.0384373  21.5011353  37.4183220  97.3543593  20.8341936
  37.8790192  98.7803363  21.0491979  28.2012829  88.0882238  20.4000414
  27.6650186  87.6372976  21.0522010  27.6129537  88.2228147  19.6570878
  37.4788081  96.0023957  19.7325333  36.5914860  95.6649879  19.8551732
  38.0486632  95.2706988  19.9694098  23.9351950  87.2238246  17.4853408
  23.8510139  86.6163915  16.7503818  23.1134657  87.7147264  17.4862904
  31.0089234 100.6625410  16.6986576  30.9359406 101.4680381  17.2105881
  30.5666627 100.8617375  15.8734598  34.1075664  85.7091809  12.8523603
  34.6044364  84.9561771  12.5324673  33.3362646  85.7456126  12.2866812
  41.9605421  91.4132175  14.4941895  41.9495298  92.2956890  14.1235828
  41.0922801  91.0603725  14.2996432  33.4687918 100.5612244  18.8544735
  34.1815890 101.1959708  18.7820636  32.9777946 100.6576110  18.0384737
  35.1905445  94.4663496  10.4262027  34.2561723  94.5864959  10.2566731
  35.3682113  93.5635963  10.1622036  30.6910633  87.8509192  12.5795288
  30.3208420  87.2980232  13.2676193  31.1869725  87.2467326  12.0270288
  38.5777996  90.3080816  10.9612061  39.0438448  91.1408807  10.8872363
  39.0285497  89.8425797  11.6657319  28.5199831  98.3106687  19.6750306
  29.2209291  98.9443170  19.8279700  28.0494946  98.6521419  18.9145945
  36.6454227  96.6524637   7.9598213  36.9214071  96.5381231   8.8692087
  35.7758726  96.2542122   7.9210386  36.5494659  82.6761403  15.0002962
  35.6357739  82.9065629  15.1685169  36.9787760  82.7599847  15.8516994
  36.3201117  90.8651295  17.5002856  35.6672568  91.1127202  16.8455309
  36.6981497  90.0515433  17.1665333  33.2808291 100.9010988  11.6031026
  33.4630686 100.0832644  12.0658779  34.1041277 101.1178680  11.1655916
  32.3688690  91.6071106  23.9868893  31.6929327  91.5065235  24.6571268
  33.1916324  91.4510319  24.4504890  24.1167549  97.8443042  16.6081408
  24.7020986  97.0986730  16.7409313  23.9192388  98.1546999  17.4918072
  26.0875966  85.2613183  18.8248394  26.1517293  86.1228014  18.4125792
  26.0243087  84.6487185  18.0920752  25.5628239  87.3336315  22.4721428
  26.1900278  86.9513393  23.0858952  24.7056158  87.1150517  22.8377121
  35.9622348  97.7399291  24.0775164  36.5062252  98.3529249  23.5830118
  35.3809192  98.2978869  24.5942177  34.2479861 100.8620009  15.2090191
  34.1231000 100.0609748  14.7001137  34.9058952 101.3566202  14.7204161
  25.8688029  87.2168741  14.3867332  25.1474615  87.8304709  14.2474805
  26.6581285  87.7526506  14.3083977  36.3114769  98.6629029  16.8369741
  35.3645104  98.5434380  16.7648068  36.6597542  97.7751527  16.9196003
  28.6714342  84.5523168  20.6607983  29.1948744  84.7985464  21.4234293
  28.4526676  85.3843202  20.2411121  33.3161202  98.4581745  13.0374094
  33.1686165  97.5298452  13.2181664  34.1414696  98.4801836  12.5531169
  27.1823446  87.1099812   8.8954586  27.5219519  87.6385733   8.1733194
  27.6295567  87.4480218   9.6713152  36.9195324  99.2810304  14.1238966
  37.8441872  99.0753165  13.9863418  36.7510627  99.0326705  15.0328308
  29.8766887  85.4936863  18.3457654  29.5363708  84.6944676  18.7478334
  29.1705894  85.7938574  17.7734487  30.5283359  82.5786175  16.7984977
  31.3509428  82.1046653  16.6763867  30.7721423  83.3576659  17.2983663
  29.1691594  85.6074434   7.0947879  29.8899956  85.9855686   6.5911595
  28.5456898  86.3263310   7.1982856  33.3122717  86.3119583   8.0306211
  33.5286331  87.1944220   7.7295039  32.8316784  85.9205796   7.3011853
  28.0521938  89.2705296  14.6076955  27.9066519  89.5845599  15.5001237
  27.5747142  89.8890196  14.0547854  29.9118321  86.2607844  14.6557845
  29.8979890  85.3648937  14.3190143  30.6290749  86.2678507  15.2896131
  31.7644451  86.6945184  16.7010972  31.5062229  87.6162255  16.6995303
  31.2329492  86.2975618  17.3911437  36.7090640  99.7995971   9.4801058
  36.8827518  99.2342394   8.7274910  37.2019531 100.5996866   9.2980548
  22.5267600  91.8110640  17.5464617  21.9821068  92.5870448  17.6784891
  23.4046950  92.1581445  17.3883738  29.3155217  85.1422224   9.9245415
  29.4371128  84.2138870  10.1236303  29.0257259  85.1560910   9.0123731
  32.1846407  82.8277134  13.0612135  32.2068104  82.8916468  12.1064115
  32.6014466  81.9881643  13.2552641  42.5630031  92.5632394  11.0991358
  43.0061177  91.8139719  10.7010481  41.6856542  92.5542530  10.7165090
  23.3133622  90.9380536  20.4394773  22.5715358  91.0863172  21.0259404
  22.9926366  91.1988802  19.5761523  31.2577285 100.4796515  20.2375164
  31.5664411 100.2345661  21.1097863  32.0552767 100.6843153  19.7494034
  28.7271769  98.1772433  14.5402842  28.1051778  97.5143138  14.2405070
  29.3976636  98.2033565  13.8576490  28.7996296  86.6554221  24.1335348
  28.8484452  87.5316344  23.7513117  29.3418810  86.1131614  23.5606991
  39.2851142  97.1995345  23.4136485  38.4946686  97.1819483  22.8740984
  39.0484496  97.7383638  24.1685521  39.4049017  94.0487811  20.7269213
  39.4547022  93.8837818  21.6684736  39.2962940  93.1815070  20.3367094
  36.6952779  90.0318739  22.0428520  37.5962642  89.8925204  21.7512518
  36.7700754  90.1973194  22.9826698  31.0295585  87.4085594  20.8881706
  30.1598894  87.7019160  20.6164295  31.2655065  87.9926039  21.6088970
  40.9067214  96.4684753  20.9711235  40.6152022  96.8314733  21.8074696
  40.2939345  95.7551761  20.7924567  42.1062896  94.0337632  13.4913805
  42.9409788  94.4727436  13.6551366  42.2422025  93.5576286  12.6722051
  39.1554402  91.5917367  19.4391293  39.6308524  91.7845013  18.6310144
  38.2319967  91.6476553  19.1934677  33.7334619  83.6265211  18.4047127
  34.2516562  84.3626238  18.0793615  33.3789751  83.9329204  19.2393886
  33.9847213  80.0465493  13.9248023  34.2648966  79.3788682  14.5508450
  34.7697820  80.2394589  13.4122687  37.8556071  88.4683127  17.6719599
  38.8073494  88.5681225  17.6931823  37.6859521  87.6761396  18.1817683
  35.8770451  85.5538710  17.8578999  35.2820383  85.8343723  17.1625488
  35.5920147  86.0432611  18.6295741  40.3344149  91.6889247  16.7861898
  40.3020469  90.7505248  16.9721582  40.9444772  91.7673284  16.0527723
  40.4838637  88.4800290  16.8320181  39.9677686  87.6958747  16.6450110
  41.3678586  88.1519007  16.9966701  38.1449364  82.2241306  12.7915994
  37.9474185  81.9156394  13.6759326  38.7549070  82.9502945  12.9213924
  46.1520699  92.7505254  15.9267935  46.8824087  92.4890542  16.4875638
  45.5427644  92.0133976  15.9670003  44.2335996  90.8913116  16.5242386
  43.5069159  90.7569081  15.9158878  43.8183283  91.1989945  17.3299104
  32.0566172  94.6103046  24.2889759  32.9769182  94.7881645  24.4829806
  32.0215755  93.6659091  24.1369458  25.0528245  92.5204081  16.9312540
  25.2714255  93.4521189  16.9500574  25.4654019  92.1612055  17.7167344
  31.9732463  83.0272166   8.9188229  31.1633191  82.6819251   9.2943475
  32.6616880  82.7179710   9.5075840  33.9023011  82.1050213  10.5412525
  34.4554049  82.5245666  11.2002548  34.1393097  81.1785961  10.5835481
  29.9256110  88.0937286  26.3215289  29.8252837  89.0431643  26.2527380
  29.7077652  87.7655525  25.4491359  37.2801818  84.2150738  10.0491190
  36.7000487  84.8735542   9.6669242  37.0137751  83.3928083   9.6378607
  35.7305384  83.6155796  12.2512510  36.2305163  83.7272330  11.4426829
  36.3740992  83.3116849  12.8913318  29.7887380  91.5234425  25.1380351
  29.3054462  92.3234785  25.3444240  29.8748319  91.5342370  24.1847795
  25.7160718  95.4138960  17.1748785  26.6703971  95.3822902  17.1078716
  25.5173241  94.9529584  17.9899011  26.3060100  93.9840076  19.7419582
  27.1252989  94.4784155  19.7654420  26.5796907  93.0672044  19.7137150
  36.0626696  86.3750828   9.1047538  35.1752551  86.6600479   8.8867733
  36.4780685  86.2144592   8.2574815  39.4141232  86.3997349  12.8201877
  40.1901622  86.8893802  13.0926494  38.6889366  86.8255404  13.2773747
  41.8513791  87.1124969  13.8775818  42.4458282  86.8720705  13.1669126
  41.9240374  86.3932099  14.5049354  36.0367720  91.8905364   9.3197828
  35.9802921  92.3473916   8.4805460  36.5896062  91.1296049   9.1420671
  39.8472526  87.6795096  10.1447948  39.5909460  87.2791732  10.9756155
  39.2225394  88.3938890  10.0198087  44.1584863  90.4191169  12.6519239
  43.5984421  90.4884359  13.4250801  43.5528367  90.2432154  11.9318735
  36.7702499  93.0810146   6.6150357  36.7151303  92.9154417   5.6738801
  36.1448554  93.7886178   6.7712547  21.5595014  88.3178210  20.4411779
  22.2053878  87.8077164  20.9299005  21.3512165  89.0546892  21.0155205
  34.0848406  95.3859057  25.9403920  34.9539566  95.5599710  25.5790555
  33.6055158  96.2053474  25.8179649  30.0798624  82.5818255   6.1935676
  30.0677294  83.5260094   6.3503946  30.9722046  82.3988400   5.8995137
  33.8950744  79.1761031  10.4481612  33.1283140  78.6219518  10.5938295
  34.3061449  79.2482900  11.3095764  25.8992505  85.4645827  24.5386794
  26.7623967  85.1082632  24.7490118  25.3257916  85.1259722  25.2262198
  48.2215998  98.4695945  17.7829990  47.8899323  99.3391355  17.5591205
  47.6261611  98.1532229  18.4624020  42.1885527 104.6080676  22.8058237
  41.4118861 105.1674596  22.7961102  42.8276090 105.0937459  23.3273107
  49.9806308 101.3907469  16.6401214  49.3380688 101.6840002  15.9941008
  49.4761236 101.2760389  17.4454410  42.2718309 104.4967877  18.3381923
  43.1179504 104.9207290  18.4816572  42.2116947 103.8401501  19.0320486
  45.4217754 102.1572245  19.9963096  45.1778686 102.9114306  19.4597372
  45.6977685 102.5357593  20.8310343  44.9782446 101.3128678  15.5776934
  44.1166925 101.6109932  15.8693672  45.0044881 101.5299077  14.6457967
  38.4574006  98.8726544  25.5316765  38.0640951  98.3192742  26.2064409
  39.2740146  99.1837122  25.9223283  41.3741967 100.2884423  23.1237022
  42.1151680 100.8891576  23.0441484  41.6059890  99.5462061  22.5655064
  45.3199130  96.3165526  17.4001303  44.9763399  97.2067167  17.3240414
  45.6878092  96.1267183  16.5370888  44.3995670  98.6870181  15.3650537
  43.8960466  98.6500316  14.5518342  44.6926277  99.5962924  15.4247193
  40.6438556  98.7708911  14.3716718  41.5091553  98.5751719  14.0122608
  40.7116065  98.5419262  15.2986075  38.2500875 101.0011118  11.7433085
  38.8244627 100.7786300  11.0106278  38.8371858 101.0699813  12.4961687
  40.5523543  97.8752367  10.4708155  39.8987955  97.5601385   9.8464769
  40.5104017  97.2528108  11.1967978  47.1186795  95.5759085  12.5019041
  47.4245672  94.7156448  12.2144956  47.8439400  96.1676705  12.3018035
  44.9274447 104.9531762  19.6000505  45.2823834 105.1803235  20.4594971
  45.5746578 105.2850139  18.9777760  38.8214310 102.0608293  16.3846846
  39.4613689 101.9197052  15.6869809  37.9891840 101.7742807  16.0085448
  35.8242926 102.0308618  11.1619833  36.0849744 102.9453951  11.0528993
  36.6460099 101.5633061  11.3116446  37.2967852 103.4446375  18.3318657
  37.9690905 103.2363737  17.6831306  36.4697638 103.2468461  17.8923890
  43.1993424 100.0708316  20.3484318  42.5521339 100.7698266  20.2548795
  43.9694439 100.5044460  20.7160566  39.0406583 103.4174156  20.4000414
  38.5043940 102.9664894  21.0522010  38.4523292 103.5520064  19.6570878
  44.9469419 101.0383727  12.8523603  45.4438118 100.2853689  12.5324673
  44.1756400 101.0748043  12.2866812  47.3888413  98.0053320  15.0002962
  46.4751493  98.2357547  15.1685169  47.8181515  98.0891764  15.8516994
  47.1594872 106.1943212  17.5002856  46.5066322 106.4419120  16.8455309
  47.5375252 105.3807350  17.1665333  36.9269721 100.5905101  18.8248394
  36.9911047 101.4519931  18.4125792  36.8636841  99.9779102  18.0920752
  36.4021993 102.6628233  22.4721428  37.0294032 102.2805310  23.0858952
  35.5449912 102.4442435  22.8377121  36.7081783 102.5460659  14.3867332
  35.9868369 103.1596626  14.2474805  37.4975039 103.0818424  14.3083977
  39.5108097  99.8815085  20.6607983  40.0342499 100.1277382  21.4234293
  39.2920430 100.7135120  20.2411121  40.7160642 100.8228780  18.3457654
  40.3757462 100.0236593  18.7478334  40.0099648 101.1230491  17.7734487
  41.3677114  97.9078093  16.7984977  42.1903183  97.4338571  16.6763867
  41.6115177  98.6868577  17.2983663  40.7512075 101.5899761  14.6557845
  40.7373644 100.6940855  14.3190143  41.4684503 101.5970425  15.2896131
  42.6038206 102.0237102  16.7010972  42.3455984 102.9454172  16.6995303
  42.0723246 101.6267536  17.3911437  43.0240162  98.1569052  13.0612135
  43.0461858  98.2208385  12.1064115  43.4408221  97.3173561  13.2552641
  39.6390051 101.9846139  24.1335348  39.6878206 102.8608262  23.7513117
  40.1812565 101.4423532  23.5606991  47.5346534 105.3610657  22.0428520
  48.4356397 105.2217122  21.7512518  47.6094508 105.5265112  22.9826698
  41.8689339 102.7377511  20.8881706  40.9992649 103.0311078  20.6164295
  42.1048820 103.3217956  21.6088970  49.9948157 106.9209285  19.4391293
  50.4702278 107.1136931  18.6310144  49.0713722 106.9768471  19.1934677
  44.5728373  98.9557128  18.4047127  45.0910317  99.6918155  18.0793615
  44.2183506  99.2621122  19.2393886  44.8240967  95.3757411  13.9248023
  45.1042721  94.7080600  14.5508450  45.6091574  95.5686507  13.4122687
  48.6949826 103.7975045  17.6719599  49.6467248 103.8973143  17.6931823
  48.5253276 103.0053313  18.1817683  46.7164205 100.8830628  17.8578999
  46.1214137 101.1635641  17.1625488  46.4313902 101.3724529  18.6295741
  51.3232392 103.8092208  16.8320181  50.8071440 103.0250665  16.6450110
  52.2072340 103.4810925  16.9966701  48.9843119  97.5533224  12.7915994
  48.7867940  97.2448312  13.6759326  49.5942824  98.2794863  12.9213924
  44.7416765  97.4342131  10.5412525  45.2947804  97.8537584  11.2002548
  44.9786852  96.5077879  10.5835481  40.7649865 103.4229204  26.3215289
  40.6646591 104.3723561  26.2527380  40.5471407 103.0947443  25.4491359
  44.7344498  94.5052949  10.4481612  43.9676894  93.9511436  10.5938295
  45.1455203  94.5774818  11.3095764  36.7386259 100.7937745  24.5386794
  37.6017721 100.4374550  24.7490118  36.1651670 100.4551639  25.2262198
  14.2834840  44.0877578  10.8020470  14.8274744  44.7007536  10.3075425
  13.7021685  44.6457156  11.3187483  17.6063634  43.5473632  10.1381791
  16.8159178  43.5297771   9.5986291  17.3696989  44.0861926  10.8930828
  12.4060898  41.7337345  12.6649227  13.2752058  41.9077997  12.3035862
  11.9267650  42.5531761  12.5424956  24.0653374  53.4425971   2.0694501
  24.7031784  53.3232718   1.3657841  23.9474217  54.3906815   2.1282453
  21.3562863  54.5488250   7.9642232  21.3451504  54.1541049   7.0922735
  21.5183503  53.8154323   8.5576003  18.0770125  57.3325362   6.9121415
  17.7859991  58.2370993   6.7968082  18.7127109  57.3741890   7.6265485
  19.0026331  54.7102211   3.5022775  19.5989904  54.4858233   2.7879738
  19.0601303  53.9686956   4.1048223  23.0360010  57.0186778   3.9071209
  22.7360733  57.9211817   3.7987016  22.6911069  56.7518961   4.7592362
  20.5098019  50.9558964   9.5303544  19.7331353  51.5152884   9.5206408
  21.1488582  51.4415746  10.0518414  28.3018800  47.7385756   3.3646520
  27.6593180  48.0318289   2.7186315  27.7973728  47.6238677   4.1699717
  18.7644392  53.7644417   9.0921511  19.5059076  54.3029461   8.8156334
  18.0581377  54.3910706   9.2493063  24.2399731  55.9073557   7.6893672
  24.6483087  55.4655968   6.9448305  23.5176993  55.3326185   7.9427865
  20.5930801  50.8446164   5.0627229  21.4391996  51.2685578   5.2061878
  20.5329439  50.1879788   5.7565792  24.5628546  56.4674748   1.4445961
  23.9337408  56.6320462   0.7422029  24.1754208  56.8816358   2.2156925
  28.4417778  57.4029186  -1.2009675  27.7568816  57.7828087  -1.7512642
  28.5261627  58.0124512  -0.4677727  23.7430247  48.5050532   6.7208403
  23.4991178  49.2592593   6.1842679  24.0190177  48.8835880   7.5555650
  25.6968709  55.0489145   5.3985668  25.9085605  55.6920905   4.7220050
  25.6498458  54.2151461   4.9307599  17.5005755  50.9184065   9.8936821
  16.8704416  51.6000346  10.1272218  17.3941843  50.8067147   8.9489959
  26.8114537  57.9261100   3.5708026  27.6331981  57.5241288   3.2890707
  26.8076940  57.8229334   4.5224142  20.5771141  57.4745144   5.7268736
  20.6415573  57.9365551   6.5626908  19.8682065  56.8442508   5.8551046
  34.9020530  54.2699849  -0.0807003  34.1484239  53.7007247  -0.2362998
  35.0368072  54.2362513   0.8663632  16.7786498  45.2204831  12.2562072
  16.3853444  44.6671029  12.9309716  17.5952638  45.5315409  12.6468589
  19.6954459  46.6362710   9.8482328  20.4364172  47.2369863   9.7686791
  19.9272382  45.8940348   9.2900371  14.8395797  51.8219077   8.1260558
  14.7249312  50.9204334   8.4267657  13.9840315  52.0682774   7.7745375
  21.9187635  59.7636818   9.7248059  21.4751489  58.9773196   9.4068963
  22.5804848  59.9515968   9.0591949  16.6774756  61.2932619   4.2508737
  17.2282181  61.1649683   3.4785731  15.8386232  61.5927508   3.9003630
  24.0168873  60.0439617   7.7529460  23.9987348  60.8648499   7.2609729
  24.9388793  59.9193693   7.9779601  20.4741927  57.5583747   8.5952968
  21.0070264  56.7972035   8.3652276  19.9456008  57.2657399   9.3377123
  26.8187486  54.8818760   1.2238827  26.1611160  55.5718021   1.3118955
  27.6227885  55.2715192   1.5672813  24.8387680  60.0545631  -1.6628271
  25.1310654  60.6150688  -2.3815905  25.3486301  60.3474192  -0.9075112
  23.2486939  51.3010049   6.3245812  23.6036327  51.5281523   7.1840277
  23.8959070  51.6328426   5.7023067  29.0054056  56.4905012   2.0406412
  29.4390562  56.3980301   2.8889466  29.7185636  56.4662513   1.4026428
  22.7381950  60.0907106   3.5739513  22.7918973  60.6598043   4.3417229
  21.8696732  60.2608991   3.2093550  29.8669605  56.5328713   4.5739298
  30.0605495  57.4374523   4.8198572  29.7670223  56.0736132   5.4077883
  21.5205916  46.4186604   7.0729625  20.8733831  47.1176553   6.9794101
  22.2906931  46.8522747   7.4405873  24.9284714  56.6835456  10.1480178
  24.7770220  56.4546007   9.2310262  24.9189393  57.6406057  10.1611523
  21.6970050  54.2567368   5.1326445  22.6262110  54.4078528   4.9595412
  21.2761080  54.3451389   4.2775091  20.4958382  58.2818033   2.9024982
  20.3569468  57.9136817   3.7750920  19.7072978  58.7965672   2.7308940
  22.0463597  57.6599636   0.2913820  21.7113430  57.6200406   1.1871470
  21.5467543  56.9944351  -0.1815770  16.0207841  53.0667266   5.8166401
  15.8827639  52.3347504   6.4177940  16.9312765  52.9776166   5.5350589
  18.6490142  52.7787225   5.3050081  19.3589760  52.1380417   5.2636699
  18.6059450  53.0300120   6.2276262  26.6376920  59.7154578   8.2256660
  26.5789467  59.0313798   7.5587243  27.0396439  60.4573568   7.7737286
  17.3619076  49.7652443   7.1245720  16.8256433  49.3143181   7.7767317
  16.7735784  49.8998352   6.3816185  26.6394328  57.6794162   6.4570640
  25.7521106  57.3420084   6.5797039  27.2092879  56.9477193   6.6939405
  20.1695481  62.3395615   3.4231883  20.0965653  63.1450586   3.9351187
  19.7272874  62.5387580   2.5979904  31.1211668  53.0902380   1.2187201
  31.1101544  53.9727095   0.8481134  30.2529048  52.7373930   1.0241738
  22.6294165  62.2382449   5.5790042  23.3422137  62.8729913   5.5065943
  22.1384193  62.3346315   4.7630043  17.6806078  59.9876892   6.3995612
  18.3815538  60.6213375   6.5525007  17.2101193  60.3291624   5.6391252
  25.4807364  52.5421499   4.2248163  24.8278814  52.7897407   3.5700615
  25.8587744  51.7285638   3.8910640  22.4414538  62.5781193  -1.6723667
  22.6236933  61.7602849  -1.2095915  23.2647524  62.7948885  -2.1098777
  21.5294937  53.2841311  10.7114200  20.8535574  53.1835440  11.3816575
  22.3522571  53.1280524  11.1750197  13.2773796  59.5213247   3.3326715
  13.8627233  58.7756935   3.4654619  13.0798635  59.8317204   4.2163379
  20.2717720  64.5908238   4.9471816  20.8236028  64.7539859   5.7120901
  20.6123913  65.1812676   4.2751841  14.7234486  49.0106520   9.1966735
  15.3506525  48.6283598   9.8104259  13.8662405  48.7920722   9.5622427
  25.1228594  59.4169495  10.8020470  25.6668498  60.0299454  10.3075425
  24.5415439  59.9749074  11.3187483  23.4086107  62.5390214   1.9335498
  23.2837247  61.7379953   1.4246443  24.0665198  63.0336407   1.4449468
  25.4721016  60.3399234   3.5615048  24.5251351  60.2204585   3.4893375
  25.8203789  59.4521732   3.6441309  22.4767449  60.1351950  -0.2380600
  22.3292411  59.2068657  -0.0573030  23.3020942  60.1572041  -0.7223525
  26.0801571  60.9580509   0.8484273  27.0048118  60.7523370   0.7108724
  25.9116874  60.7096910   1.7573615  12.4739869  52.6150741   7.1640080
  11.7321605  52.7633377   7.7504711  12.1532613  52.8759007   6.3006830
  20.4183531  62.1566720   6.9620470  20.7270658  61.9115866   7.8343170
  21.2159013  62.3613358   6.4739340  17.8878016  59.8542638   1.2648148
  17.2658025  59.1913343   0.9650376  18.5582882  59.8803770   0.5821796
  17.9602543  48.3324426  10.8580654  18.0090698  49.2086549  10.4758424
  18.5025057  47.7901819  10.2852298  28.4457389  58.8765550  10.1381791
  27.6552932  58.8589688   9.5986291  28.2090743  59.4153843  10.8930828
  28.5655264  55.7258016   7.4514520  28.6153269  55.5608023   8.3930043
  28.4569187  54.8585275   7.0612401  25.8559026  51.7088944   8.7673827
  26.7568889  51.5695409   8.4757825  25.9307001  51.8743399   9.7072004
  20.1901831  49.0855799   7.6127013  19.3205141  49.3789365   7.3409602
  20.4261312  49.6696244   8.3334277  30.0673461  58.1454957   7.6956542
  29.7758269  58.5084938   8.5320003  29.4545592  57.4321966   7.5169874
  31.2669143  55.7107837   0.2159112  32.1016034  56.1497641   0.3796672
  31.4028272  55.2346490  -0.6032642  28.3160649  53.2687572   6.1636600
  28.7914770  53.4615218   5.3555451  27.3926214  53.3246758   5.9179983
  27.0162318  50.1453332   4.3964905  27.9679741  50.2451430   4.4177129
  26.8465768  49.3531601   4.9062990  29.4950396  53.3659452   3.5107205
  29.4626716  52.4275453   3.6966889  30.1051019  53.4443489   2.7773030
  29.6444884  50.1570495   3.5565488  29.1283933  49.3728952   3.3695417
  30.5284833  49.8289212   3.7212007  35.3126945  54.4275459   2.6513242
  36.0430334  54.1660747   3.2120945  34.7033891  53.6904181   2.6915310
  33.3942243  52.5683321   3.2487693  32.6675406  52.4339286   2.6404184
  32.9789529  52.8760150   4.0544411  21.2172419  56.2873251  11.0135066
  22.1375428  56.4651850  11.2075112  21.1822002  55.3429296  10.8614765
  19.0862357  49.7707491  13.0460596  18.9859084  50.7201848  12.9772687
  18.8683899  49.4425730  12.1736666  18.9493627  53.2004630  11.8625658
  18.4660709  54.0004990  12.0689547  19.0354566  53.2112575  10.9093102
  14.8766964  57.0909165   3.8994091  15.8310218  57.0593107   3.8324023
  14.6779488  56.6299789   4.7144317  15.4666347  55.6610281   6.4664889
  16.2859236  56.1554360   6.4899726  15.7403154  54.7442249   6.4382457
  33.3191110  52.0961374  -0.6235454  32.7590668  52.1654564   0.1496108
  32.7134614  51.9202359  -1.3435958  23.2454653  57.0629262  12.6649227
  24.1145813  57.2369915  12.3035862  22.7661404  57.8823679  12.5424956
  17.4140833  64.1826363   4.3438660  18.3168080  64.2149974   4.6605155
  17.1878203  63.2526814   4.3584996  15.0598752  47.1416032  11.2632100
  15.9230213  46.7852837  11.4735425  14.4864162  46.8029927  11.9507505
  34.9047129  68.7717888   2.0694501  35.5425539  68.6524636   1.3657841
  34.7867972  69.7198732   2.1282453  31.7136835  68.7245316   2.0056026
  31.3755347  68.6086381   1.1176561  32.5826603  68.3236481   1.9857032
  32.1956618  69.8780168   7.9642232  32.1845259  69.4832966   7.0922735
  32.3577257  69.1446241   8.5576003  28.9163879  72.6617280   6.9121415
  28.6253745  73.5662911   6.7968082  29.5520863  72.7033808   7.6265485
  29.8420086  70.0394128   3.5022775  30.4383658  69.8150151   2.7879738
  29.8995057  69.2978874   4.1048223  34.4588397  66.4969342  -0.8552291
  35.2451486  66.0788765  -1.2061874  34.7227102  67.4015434  -0.6870642
  39.8596824  66.4344575   0.0480688  40.5921996  65.8643792   0.2818517
  39.1036180  66.0466176   0.4887193  31.4772944  68.8571817  -2.7555970
  31.1131151  68.3302438  -2.0443048  32.3340060  68.4670286  -2.9289484
  37.3822245  60.1466149   4.5075296  37.0505569  61.0161560   4.2836511
  36.7867858  59.8302433   5.1869327  33.8753764  72.3478695   3.9071209
  33.5754487  73.2503734   3.7987016  33.5304824  72.0810879   4.7592362
  27.3266246  68.7992492  -0.0592086  26.4016742  68.6668706   0.1485605
  27.5750659  69.5786711   0.4377856  37.2750908  64.8661236   1.5868647
  36.3667785  64.7976644   1.2927407  37.2238504  65.3433181   2.4150472
  24.6875057  68.4425766   0.7751703  24.8167438  68.6960245   1.6891114
  24.0072508  69.0353474   0.4556358  31.3491774  66.2850881   9.5303544
  30.5725108  66.8444801   9.5206408  31.9882337  66.7707664  10.0518414
  39.1412554  63.0677674   3.3646520  38.4986935  63.3610207   2.7186315
  38.6367483  62.9530594   4.1699717  36.7952718  66.8140847  -5.9467620
  37.7070574  67.0468234  -6.1219923  36.2862365  67.3977891  -6.5092542
  29.6038146  69.0936335   9.0921511  30.3452830  69.6321379   8.8156334
  28.8975132  69.7202623   9.2493063  35.0793486  71.2365475   7.6893672
  35.4876842  70.7947886   6.9448305  34.3570747  70.6618103   7.9427865
  31.4324556  66.1738082   5.0627229  32.2785751  66.5977495   5.2061878
  31.3723193  65.5171706   5.7565792  35.4022300  71.7966666   1.4445961
  34.7731163  71.9612380   0.7422029  35.0147962  72.2108275   2.2156925
  39.2811532  72.7321103  -1.2009675  38.5962570  73.1120005  -1.7512642
  39.3655382  73.3416430  -0.4677727  34.5824001  63.8342450   6.7208403
  34.3384933  64.5884511   6.1842679  34.8583932  64.2127798   7.5555650
  36.5362464  70.3781063   5.3985668  36.7479359  71.0212822   4.7220050
  36.4892212  69.5443379   4.9307599  34.1388693  62.9898883   2.3022241
  33.2773172  63.2880137   2.5938978  34.1651127  63.2069282   1.3703273
  30.9550262  71.5341074  -1.2903954  31.4188608  71.8128777  -2.0799331
  30.6907060  70.6324518  -1.4730863  27.8474343  71.0812555   1.6475810
  28.4175700  71.5099824   1.0093294  28.4382455  70.7995140   2.3459995
  29.8919148  67.6564226  -4.4814389  30.5943192  68.1085270  -4.0140462
  29.5599777  67.0148045  -3.8534495  28.3399510  66.2475983   9.8936821
  27.7098170  66.9292264  10.1272218  28.2335598  66.1359064   8.9489959
  23.6344482  65.9147779   0.8202745  22.8443536  66.1705307   0.3442856
  24.1255730  66.7296117   0.9254785  37.6508292  73.2553018   3.5708026
  38.4725736  72.8533205   3.2890707  37.6470695  73.1521252   4.5224142
  31.4164895  72.8037061   5.7268736  31.4809328  73.2657468   6.5626908
  30.7075819  72.1734426   5.8551046  21.9182185  66.1678269   3.2517736
  22.1690224  67.0525279   3.5175312  22.4541734  65.9882871   2.4792828
  45.7414285  69.5991766  -0.0807003  44.9877993  69.0299164  -0.2362998
  45.8761826  69.5654431   0.8663632  27.6180253  60.5496749  12.2562072
  27.2247198  59.9962947  12.9309716  28.4346393  60.8607327  12.6468589
  30.5348214  61.9654628   9.8482328  31.2757927  62.5661781   9.7686791
  30.7666136  61.2232265   9.2900371  25.6789552  67.1510995   8.1260558
  25.5643067  66.2496252   8.4267657  24.8234069  67.3974692   7.7745375
  32.7581389  75.0928735   9.7248059  32.3145243  74.3065114   9.4068963
  33.4198603  75.2807886   9.0591949  27.5168510  76.6224537   4.2508737
  28.0675936  76.4941600   3.4785731  26.6779986  76.9219426   3.9003630
  34.8562627  75.3731535   7.7529460  34.8381103  76.1940416   7.2609729
  35.7782547  75.2485610   7.9779601  31.3135682  72.8875665   8.5952968
  31.8464018  72.1263953   8.3652276  30.7849763  72.5949316   9.3377123
  34.4805376  57.9935731   4.1246610  34.1369646  58.8837372   4.0485721
  34.8484339  57.8037388   3.2616195  34.4455659  67.9844342  -7.3680955
  33.9302283  68.7548946  -7.1292567  34.1732968  67.3109478  -6.7447893
  32.0302770  62.8294042  -2.3095716  31.1744367  62.4400893  -2.4890078
  32.4429722  62.9086003  -3.1695931  33.5601917  60.3640386   2.0895843
  33.0566712  60.3270521   1.2763649  33.8532524  61.2733128   2.1492500
  29.8044803  60.4479115   1.0962025  30.6697800  60.2521924   0.7367915
  29.8722312  60.2189467   2.0231382  39.4189933  70.7376696  -5.4327781
  38.6419376  70.3987856  -5.8772619  40.0981414  70.7429320  -6.1072816
  34.2341962  65.8571434  -5.5421174  33.9292098  66.1717583  -4.6911030
  35.1872404  65.9352854  -5.4993841  32.6788394  72.0161657  -3.8928220
  32.1509756  71.2814417  -4.2054982  32.1775897  72.7936333  -4.1388251
  37.6581240  70.2110678   1.2238827  37.0004915  70.9009939   1.3118955
  38.4621639  70.6007110   1.5672813  27.4107122  62.6781323  -1.5321608
  27.9850874  62.4556505  -2.2648415  27.9978104  62.7470018  -0.7793007
  36.4686699  68.5655050  -0.7257232  36.9818581  69.1985042  -0.2235522
  37.1187923  67.9656246  -1.0913872  29.7129790  59.5522572  -2.8046539
  29.0594202  59.2371589  -3.4289924  29.6710264  58.9298313  -2.0786716
  32.9467530  66.0404506   1.5201109  32.0290091  66.2619453   1.3622797
  33.3627674  66.1150816   0.6612816  33.7302578  67.4395922  -3.3496211
  34.4774397  67.9517319  -3.6589089  33.9994167  67.1179974  -2.4891817
  37.2348495  73.5461052  -2.5978089  36.7810822  72.7051962  -2.5412898
  36.6042462  74.1822450  -2.2603309  36.1781415  64.4753038  -1.3677422
  35.4404172  63.9630424  -1.0367179  36.4308188  64.0353419  -2.1794145
  35.6781434  75.3837548  -1.6628271  35.9704409  75.9442606  -2.3815905
  36.1880055  75.6766109  -0.9075112  36.2793042  57.2529290  -0.7735652
  36.5851919  56.3926653  -1.0609737  37.0045647  57.8446910  -0.9736658
  30.5514122  67.5483083  -0.2659461  30.6062732  66.5956919  -0.3416985
  29.7405324  67.7042522   0.2181837  28.4906482  66.1660143  -2.5069082
  27.6774347  66.4654313  -2.1003890  28.9865476  65.7715831  -1.7894600
  34.0880693  66.6301967   6.3245812  34.4430081  66.8573440   7.1840277
  34.7352825  66.9620344   5.7023067  39.8178430  69.7520403  -2.9704859
  39.6796329  69.9421999  -3.8983670  39.4614649  70.5139786  -2.5136808
  27.9820557  63.7378498   3.1092153  28.6219936  63.5967257   2.4115116
  27.1498087  63.4513012   2.7330755  39.8447810  71.8196930   2.0406412
  40.2784317  71.7272219   2.8889466  40.5579391  71.7954430   1.4026428
  28.7580860  73.0380929  -0.7772855  29.5521459  72.5431249  -0.9790280
  28.0472553  72.5098792  -1.1405149  33.5775705  75.4199024   3.5739513
  33.6312727  75.9889960   4.3417229  32.7090486  75.5900909   3.2093550
  24.9849173  63.7078823  -2.1134861  25.2455990  64.6224156  -2.2225700
  25.8066345  63.2403266  -1.9638248  26.4574098  65.1216580   5.0563964
  27.1297152  64.9133942   4.4076613  25.6303885  64.9238666   4.6169196
  40.7063360  71.8620631   4.5739298  40.8999250  72.7666441   4.8198572
  40.6063978  71.4028050   5.4077883  32.3599670  61.7478521   7.0729625
  31.7127585  62.4468471   6.9794101  33.1300686  62.1814665   7.4405873
  35.7678468  72.0127373  10.1480178  35.6163975  71.7837925   9.2310262
  35.7583148  72.9697975  10.1611523  32.5363805  69.5859286   5.1326445
  33.4655865  69.7370446   4.9595412  32.1154835  69.6743307   4.2775091
  31.3352136  73.6109951   2.9024982  31.1963222  73.2428735   3.7750920
  30.5466733  74.1257590   2.7308940  32.8857352  72.9891553   0.2913820
  32.5507184  72.9492323   1.1871470  32.3861297  72.3236269  -0.1815770
  26.8601596  68.3959183   5.8166401  26.7221394  67.6639422   6.4177940
  27.7706519  68.3068083   5.5350589  29.4883896  68.1079143   5.3050081
  30.1983515  67.4672335   5.2636699  29.4453204  68.3592037   6.2276262
  37.4770675  75.0446496   8.2256660  37.4183221  74.3605716   7.5587243
  37.8790193  75.7865486   7.7737286  28.2012830  65.0944360   7.1245720
  27.6650187  64.6435099   7.7767317  27.6129539  65.2290269   6.3816185
  37.4788082  73.0086080   6.4570640  36.5914861  72.6712002   6.5797039
  38.0486633  72.2769111   6.6939405  23.9351951  64.2300368   4.2098715
  23.8510140  63.6226038   3.4749125  23.1134658  64.7209386   4.2108211
  31.0089236  77.6687532   3.4231883  30.9359407  78.4742504   3.9351187
  30.5666629  77.8679498   2.5979904  34.1075665  62.7153932  -0.4231090
  34.6044365  61.9623894  -0.7430020  33.3362647  62.7518248  -0.9887881
  41.9605423  68.4194297   1.2187201  41.9495299  69.3019013   0.8481134
  41.0922802  68.0665848   1.0241738  33.4687919  77.5674366   5.5790042
  34.1815891  78.2021831   5.5065943  32.9777948  77.6638232   4.7630043
  35.1905446  71.4725619  -2.8492667  34.2561725  71.5927081  -3.0187962
  35.3682114  70.5698086  -3.1132657  30.6910634  64.8571315  -0.6959406
  30.3208422  64.3042355  -0.0078500  31.1869727  64.2529448  -1.2484406
  38.5777997  67.3142938  -2.3142633  39.0438450  68.1470930  -2.3882330
  39.0285498  66.8487920  -1.6097374  28.5199833  75.3168810   6.3995612
  29.2209292  75.9505293   6.5525007  28.0494948  75.6583541   5.6391252
  36.6454228  73.6586759  -5.3156481  36.9214072  73.5443354  -4.4062607
  35.7758727  73.2604244  -5.3544308  36.5494660  59.6823525   1.7248269
  35.6357740  59.9127752   1.8930476  36.9787762  59.7661969   2.5762301
  36.3201119  67.8713417   4.2248163  35.6672569  68.1189325   3.5700615
  36.6981498  67.0577555   3.8910640  33.2808292  77.9073110  -1.6723667
  33.4630687  77.0894766  -1.2095915  34.1041278  78.1240803  -2.1098777
  32.3688692  68.6133228  10.7114200  31.6929329  68.5127358  11.3816575
  33.1916326  68.4572442  11.1750197  24.1167551  74.8505165   3.3326715
  24.7020988  74.1048853   3.4654619  23.9192389  75.1609121   4.2163379
  31.1111475  79.9200156   4.9471816  31.6629783  80.0831777   5.7120901
  31.4517668  80.5104593   4.2751841  26.0875968  62.2675305   5.5493700
  26.1517294  63.1290136   5.1371098  26.0243088  61.6549307   4.8166059
  25.5628240  64.3398438   9.1966735  26.1900279  63.9575515   9.8104259
  24.7056159  64.1212640   9.5622427  35.9622349  74.7461413  10.8020470
  36.5062253  75.3591371  10.3075425  35.3809194  75.3040992  11.3187483
  34.2479862  77.8682131   1.9335498  34.1231001  77.0671871   1.4246443
  34.9058953  78.3628325   1.4449468  25.8688030  64.2230864   1.1112638
  25.1474616  64.8366831   0.9720111  26.6581286  64.7588629   1.0329284
  36.3114770  75.6691151   3.5615048  35.3645106  75.5496502   3.4893375
  36.6597543  74.7813649   3.6441309  28.6714344  61.5585290   7.3853290
  29.1948745  61.8047587   8.1479599  28.4526677  62.3905325   6.9656427
  33.3161203  75.4643867  -0.2380600  33.1686166  74.5360575  -0.0573030
  34.1414697  75.4863958  -0.7223525  27.1823448  64.1161935  -4.3800108
  27.5219520  64.6447856  -5.1021499  27.6295568  64.4542341  -3.6041541
  36.9195325  76.2872426   0.8484273  37.8441873  76.0815288   0.7108724
  36.7510629  76.0388827   1.7573615  29.8766889  62.4998985   5.0702960
  29.5363709  61.7006798   5.4723640  29.1705895  62.8000696   4.4979794
  30.5283360  59.5848298   3.5230283  31.3509430  59.1108776   3.4009174
  30.7721424  60.3638781   4.0228970  29.1691595  62.6136556  -6.1806815
  29.8899957  62.9917809  -6.6843098  28.5456899  63.3325433  -6.0771837
  33.3122718  63.3181705  -5.2448483  33.5286332  64.2006343  -5.5459654
  32.8316785  62.9267919  -5.9742841  28.0521939  66.2767418   1.3322262
  27.9066520  66.5907721   2.2246544  27.5747143  66.8952319   0.7793161
  29.9118322  63.2669966   1.3803152  29.8979891  62.3711060   1.0435450
  30.6290750  63.2740630   2.0141438  31.7644453  63.7007307   3.4256279
  31.5062231  64.6224377   3.4240610  31.2329493  63.3037741   4.1156743
  36.7090642  76.8058094  -3.7953636  36.8827519  76.2404516  -4.5479783
  37.2019533  77.6058989  -3.9774146  22.5267601  68.8172763   4.2709923
  21.9821069  69.5932571   4.4030198  23.4046951  69.1643567   4.1129045
  29.3155218  62.1484347  -3.3509278  29.4371129  61.2200993  -3.1518391
  29.0257260  62.1623033  -4.2630963  32.1846408  59.8339257  -0.2142558
  32.2068105  59.8978590  -1.1690579  32.6014467  58.9943766  -0.0202052
  42.5630033  69.5694517  -2.1763336  43.0061179  68.8201842  -2.5744213
  41.6856543  69.5604653  -2.5589604  23.3133623  67.9442659   7.1640080
  22.5715359  68.0925294   7.7504711  22.9926367  68.2050925   6.3006830
  31.2577286  77.4858637   6.9620470  31.5664412  77.2407784   7.8343170
  32.0552768  77.6905276   6.4739340  28.7271770  75.1834556   1.2648148
  28.1051779  74.5205261   0.9650376  29.3976637  75.2095688   0.5821796
  28.7996298  63.6616344  10.8580654  28.8484453  64.5378467  10.4758424
  29.3418812  63.1193737  10.2852298  39.2851143  74.2057467  10.1381791
  38.4946687  74.1881606   9.5986291  39.0484498  74.7445761  10.8930828
  39.4049018  71.0549934   7.4514520  39.4547023  70.8899941   8.3930043
  39.2962942  70.1877193   7.0612401  36.6952781  67.0380862   8.7673827
  37.5962643  66.8987326   8.4757825  36.7700755  67.2035316   9.7072004
  31.0295586  64.4147716   7.6127013  30.1598895  64.7081282   7.3409602
  31.2655066  64.9988161   8.3334277  40.9067215  73.4746875   7.6956542
  40.6152023  73.8376856   8.5320003  40.2939346  72.7613883   7.5169874
  42.1062897  71.0399755   0.2159112  42.9409789  71.4789559   0.3796672
  42.2422026  70.5638408  -0.6032642  39.1554403  68.5979490   6.1636600
  39.6308525  68.7907136   5.3555451  38.2319969  68.6538676   5.9179983
  33.7334620  60.6327333   5.1292433  34.2516564  61.3688360   4.8038922
  33.3789753  60.9391327   5.9639193  33.9847214  57.0527616   0.6493330
  34.2648968  56.3850805   1.2753757  34.7697821  57.2456711   0.1367994
  37.8556072  65.4745250   4.3964905  38.8073495  65.5743348   4.4177129
  37.6859523  64.6823518   4.9062990  35.8770452  62.5600833   4.5824306
  35.2820384  62.8405846   3.8870795  35.5920148  63.0494734   5.3541047
  40.3344150  68.6951370   3.5107205  40.3020470  67.7567370   3.6966889
  40.9444774  68.7735406   2.7773030  40.4838639  65.4862413   3.5565488
  39.9677687  64.7020870   3.3695417  41.3678587  65.1581130   3.7212007
  38.1449365  59.2303429  -0.4838699  37.9474187  58.9218517   0.4004633
  38.7549071  59.9565067  -0.3540769  46.1520700  69.7567376   2.6513242
  46.8824088  69.4952665   3.2120945  45.5427645  69.0196098   2.6915310
  44.2335997  67.8975239   3.2487693  43.5069161  67.7631204   2.6404184
  43.8183284  68.2052068   4.0544411  32.0566173  71.6165169  11.0135066
  32.9769183  71.7943768  11.2075112  32.0215757  70.6721214  10.8614765
  25.0528246  69.5266203   3.6557847  25.2714256  70.4583311   3.6745881
  25.4654020  69.1674178   4.4412651  31.9732464  60.0334289  -4.3566465
  31.1633192  59.6881374  -3.9811219  32.6616881  59.7241832  -3.7678853
  33.9023012  59.1112335  -2.7342168  34.4554051  59.5307789  -2.0752145
  34.1393098  58.1848084  -2.6919212  29.9256111  65.0999409  13.0460596
  29.8252838  66.0493766  12.9772687  29.7077653  64.7717648  12.1736666
  37.2801819  61.2212861  -3.2263504  36.7000488  61.8797665  -3.6085451
  37.0137752  60.3990205  -3.6376086  35.7305386  60.6217918  -1.0242183
  36.2305164  60.7334453  -1.8327865  36.3740993  60.3178971  -0.3841375
  29.7887381  68.5296548  11.8625658  29.3054463  69.3296908  12.0689547
  29.8748320  68.5404493  10.9093102  25.7160719  72.4201083   3.8994091
  26.6703972  72.3885025   3.8324023  25.5173242  71.9591706   4.7144317
  26.3060101  70.9902199   6.4664889  27.1252990  71.4846277   6.4899726
  26.5796909  70.0734167   6.4382457  36.0626697  63.3812951  -4.1707155
  35.1752552  63.6662602  -4.3886961  36.4780686  63.2206714  -5.0179879
  39.4141233  63.4059472  -0.4552816  40.1901623  63.8955924  -0.1828199
  38.6889368  63.8317526   0.0019053  41.8513792  64.1187091   0.6021124
  42.4458283  63.8782827  -0.1085567  41.9240376  63.3994222   1.2294661
  36.0367721  68.8967487  -3.9556865  35.9802922  69.3536038  -4.7949233
  36.5896063  68.1358171  -4.1334023  39.8472527  64.6857219  -3.1306746
  39.5909461  64.2853854  -2.2998538  39.2225395  65.4001013  -3.2556607
  44.1584865  67.4253292  -0.6235454  43.5984423  67.4946481   0.1496108
  43.5528368  67.2494277  -1.3435958  36.7702500  70.0872268  -6.6604336
  36.7151304  69.9216540  -7.6015892  36.1448556  70.7948301  -6.5042146
  21.5595015  65.3240333   7.1657086  22.2053879  64.8139286   7.6544311
  21.3512166  66.0609014   7.7400511  34.0848407  72.3921180  12.6649227
  34.9539567  72.5661832  12.3035862  33.6055159  73.2115597  12.5424956
  28.2534588  79.5118281   4.3438660  29.1561834  79.5441891   4.6605155
  28.0271958  78.5818732   4.3584996  33.8950745  56.1823154  -2.8273081
  33.1283141  55.6281640  -2.6816399  34.3061450  56.2545023  -1.9658929
  25.8992506  62.4707950  11.2632100  26.7623968  62.1144754  11.4735425
  25.3257917  62.1321844  11.9507505  43.0350372  85.2072086   7.9642232
  43.0239013  84.8124884   7.0922735  43.1971012  84.4738158   8.5576003
  39.7557634  87.9909198   6.9121415  39.4647500  88.8954828   6.7968082
  40.3914618  88.0325725   7.6265485  40.6813840  85.3686046   3.5022775
  41.2777413  85.1442069   2.7879738  40.7388812  84.6270792   4.1048223
  48.2215999  75.4758067   4.5075296  47.8899324  76.3453478   4.2836511
  47.6261613  75.1594351   5.1869327  35.5268811  83.7717683   0.7751703
  35.6561192  84.0252162   1.6891114  34.8466263  84.3645391   0.4556358
  42.1885528  81.6142799   9.5303544  41.4118862  82.1736719   9.5206408
  42.8276091  82.0999582  10.0518414  49.9806309  78.3969592   3.3646520
  49.3380689  78.6902125   2.7186315  49.4761237  78.2822512   4.1699717
  40.4431901  84.4228252   9.0921511  41.1846585  84.9613296   8.8156334
  39.7368886  85.0494541   9.2493063  45.9187240  86.5657393   7.6893672
  46.3270596  86.1239803   6.9448305  45.1964502  85.9910020   7.9427865
  42.2718310  81.5029999   5.0627229  43.1179505  81.9269413   5.2061878
  42.2116948  80.8463624   5.7565792  45.4217756  79.1634368   6.7208403
  45.1778687  79.9176428   6.1842679  45.6977686  79.5419715   7.5555650
  44.9782447  78.3190801   2.3022241  44.1166926  78.6172054   2.5938978
  45.0044882  78.5361200   1.3703273  39.1793264  81.5767900   9.8936821
  38.5491925  82.2584181  10.1272218  39.0729352  81.4650982   8.9489959
  34.4738237  81.2439696   0.8202745  33.6837291  81.4997225   0.3442856
  34.9649484  82.0588034   0.9254785  42.2558650  88.1328979   5.7268736
  42.3203082  88.5949386   6.5626908  41.5469574  87.5026344   5.8551046
  32.7575940  81.4970187   3.2517736  33.0083978  82.3817197   3.5175312
  33.2935488  81.3174788   2.4792828  38.4574007  75.8788666  12.2562072
  38.0640953  75.3254865  12.9309716  39.2740147  76.1899245  12.6468589
  41.3741968  77.2946545   9.8482328  42.1151681  77.8953698   9.7686791
  41.6059891  76.5524183   9.2900371  36.5183306  82.4802913   8.1260558
  36.4036821  81.5788170   8.4267657  35.6627824  82.7266609   7.7745375
  43.5975144  90.4220653   9.7248059  43.1538998  89.6357031   9.4068963
  44.2592357  90.6099803   9.0591949  42.1529436  88.2167582   8.5952968
  42.6857773  87.4555871   8.3652276  41.6243517  87.9241234   9.3377123
  45.3199131  73.3227648   4.1246610  44.9763400  74.2129290   4.0485721
  45.6878094  73.1329306   3.2616195  44.3995671  75.6932303   2.0895843
  43.8960467  75.6562439   1.2763649  44.6926278  76.6025046   2.1492500
  38.2500876  78.0073241  -1.5321608  38.8244628  77.7848423  -2.2648415
  38.8371859  78.0761936  -0.7793007  40.5523544  74.8814490  -2.8046539
  39.8987956  74.5663507  -3.4289924  40.5104018  74.2590230  -2.0786716
  47.1186797  72.5821207  -0.7735652  47.4245673  71.7218571  -1.0609737
  47.8439401  73.1738828  -0.9736658  44.9274448  81.9593885   6.3245812
  45.2823836  82.1865358   7.1840277  45.5746579  82.2912262   5.7023067
  38.8214311  79.0670416   3.1092153  39.4613690  78.9259175   2.4115116
  37.9891842  78.7804929   2.7330755  35.8242927  79.0370741  -2.1134861
  36.0849745  79.9516074  -2.2225700  36.6460100  78.5695183  -1.9638248
  37.2967853  80.4508498   5.0563964  37.9690906  80.2425860   4.4076613
  36.4697639  80.2530584   4.6169196  43.1993425  77.0770439   7.0729625
  42.5521340  77.7760389   6.9794101  43.9694440  77.5106583   7.4405873
  46.6072223  87.3419291  10.1480178  46.4557729  87.1129843   9.2310262
  46.5976902  88.2989892  10.1611523  43.3757559  84.9151204   5.1326445
  44.3049619  85.0662363   4.9595412  42.9548589  85.0035225   4.2775091
  37.6995350  83.7251101   5.8166401  37.5615148  82.9931340   6.4177940
  38.6100274  83.6360001   5.5350589  40.3277651  83.4371060   5.3050081
  41.0377269  82.7964252   5.2636699  40.2846959  83.6883955   6.2276262
  39.0406585  80.4236278   7.1245720  38.5043942  79.9727017   7.7767317
  38.4523293  80.5582187   6.3816185  34.7745706  79.5592286   4.2098715
  34.6903895  78.9517955   3.4749125  33.9528412  80.0501304   4.2108211
  44.9469420  78.0445849  -0.4231090  45.4438119  77.2915812  -0.7430020
  44.1756401  78.0810166  -0.9887881  39.3593587  90.6460727   6.3995612
  40.0603047  91.2797210   6.5525007  38.8888702  90.9875459   5.6391252
  47.3888415  75.0115443   1.7248269  46.4751494  75.2419670   1.8930476
  47.8181516  75.0953887   2.5762301  47.1594873  83.2005335   4.2248163
  46.5066323  83.4481242   3.5700615  47.5375253  82.3869473   3.8910640
  43.2082446  83.9425146  10.7114200  42.5323083  83.8419275  11.3816575
  44.0310080  83.7864360  11.1750197  34.9561305  90.1797082   3.3326715
  35.5414742  89.4340770   3.4654619  34.7586144  90.4901039   4.2163379
  36.9269722  77.5967223   5.5493700  36.9911049  78.4582054   5.1371098
  36.8636842  76.9841225   4.8166059  36.4021995  79.6690356   9.1966735
  37.0294034  79.2867433   9.8104259  35.5449914  79.4504558   9.5622427
  46.8016103  90.0753331  10.8020470  47.3456007  90.6883289  10.3075425
  46.2202948  90.6332909  11.3187483  36.7081785  79.5522781   1.1112638
  35.9868370  80.1658749   0.9720111  37.4975040  80.0880546   1.0329284
  39.5108098  76.8877208   7.3853290  40.0342500  77.1339504   8.1479599
  39.2920431  77.7197243   6.9656427  40.7160643  77.8290903   5.0702960
  40.3757463  77.0298716   5.4723640  40.0099649  78.1292614   4.4979794
  41.3677115  74.9140215   3.5230283  42.1903184  74.4400694   3.4009174
  41.6115178  75.6930699   4.0228970  38.8915694  81.6059336   1.3322262
  38.7460274  81.9199639   2.2246544  38.4140897  82.2244236   0.7793161
  40.7512077  78.5961884   1.3803152  40.7373645  77.7002977   1.0435450
  41.4684505  78.6032548   2.0141438  42.6038207  79.0299224   3.4256279
  42.3455985  79.9516295   3.4240610  42.0723248  78.6329659   4.1156743
  33.3661356  84.1464680   4.2709923  32.8214824  84.9224488   4.4030198
  34.2440706  84.4935485   4.1129045  43.0240163  75.1631175  -0.2142558
  43.0461860  75.2270508  -1.1690579  43.4408222  74.3235683  -0.0202052
  34.1527378  83.2734577   7.1640080  33.4109114  83.4217212   7.7504711
  33.8320122  83.5342842   6.3006830  39.6390052  78.9908262  10.8580654
  39.6878207  79.8670384  10.4758424  40.1812566  78.4485655  10.2852298
  50.1244898  89.5349385  10.1381791  49.3340441  89.5173524   9.5986291
  49.8878252  90.0737679  10.8930828  50.2442773  86.3841851   7.4514520
  50.2940778  86.2191859   8.3930043  50.1356696  85.5169110   7.0612401
  47.5346535  82.3672779   8.7673827  48.4356398  82.2279244   8.4757825
  47.6094510  82.5327234   9.7072004  41.8689340  79.7439634   7.6127013
  40.9992650  80.0373200   7.3409602  42.1048821  80.3280079   8.3334277
  49.9948158  83.9271407   6.1636600  50.4702279  84.1199054   5.3555451
  49.0713723  83.9830593   5.9179983  44.5728374  75.9619251   5.1292433
  45.0910318  76.6980278   4.8038922  44.2183507  76.2683244   5.9639193
  44.8240968  72.3819534   0.6493330  45.1042722  71.7142723   1.2753757
  45.6091575  72.5748629   0.1367994  48.6949827  80.8037168   4.3964905
  49.6467250  80.9035265   4.4177129  48.5253277  80.0115436   4.9062990
  46.7164206  77.8892751   4.5824306  46.1214138  78.1697763   3.8870795
  46.4313903  78.3786652   5.3541047  51.3232393  80.8154331   3.5565488
  50.8071442  80.0312787   3.3695417  52.2072342  80.4873047   3.7212007
  48.9843120  74.5595346  -0.4838699  48.7867941  74.2510434   0.4004633
  49.5942826  75.2856985  -0.3540769  42.8959928  86.9457086  11.0135066
  43.8162937  87.1235685  11.2075112  42.8609511  86.0013132  10.8614765
  35.8922001  84.8558121   3.6557847  36.1108010  85.7875229   3.6745881
  36.3047774  84.4966095   4.4412651  44.7416767  74.4404253  -2.7342168
  45.2947805  74.8599707  -2.0752145  44.9786853  73.5140001  -2.6919212
  40.7649866  80.4291327  13.0460596  40.6646593  81.3785684  12.9772687
  40.5471408  80.1009566  12.1736666  40.6281136  83.8588466  11.8625658
  40.1448218  84.6588826  12.0689547  40.7142075  83.8696410  10.9093102
  36.5554473  87.7493000   3.8994091  37.5097727  87.7176943   3.8324023
  36.3566997  87.2883624   4.7144317  37.1453856  86.3194116   6.4664889
  37.9646745  86.8138195   6.4899726  37.4190663  85.4026084   6.4382457
  32.3988770  80.6532250   7.1657086  33.0447633  80.1431204   7.6544311
  32.1905921  81.3900932   7.7400511  44.9242162  87.7213098  12.6649227
  45.7933322  87.8953750  12.3035862  44.4448913  88.5407515  12.5424956
  44.7344500  71.5115071  -2.8273081  43.9676895  70.9573558  -2.6816399
  45.1455205  71.5836940  -1.9658929  36.7386261  77.7999867  11.2632100
  37.6017722  77.4436672  11.4735425  36.1651671  77.4613762  11.9507505
  49.2967762  91.2080584  12.2562072  48.9034707  90.6546782  12.9309716
  50.1133902  91.5191162  12.6468589  51.6043620  95.7583244  13.0460596
  51.5040347  96.7077601  12.9772687  51.3865162  95.4301483  12.1736666
  47.5780015  93.1291785  11.2632100  48.4411477  92.7728590  11.4735425
  47.0045426  92.7905680  11.9507505  35.9622350  51.7523536  -2.4734223
  36.5062254  52.3653494  -2.9679268  35.3809195  52.3103114  -1.9567210
  39.2851144  51.2119590  -3.1372902  38.4946688  51.1943729  -3.6768402
  39.0484499  51.7507884  -2.3823865  34.0848409  49.3983303  -0.6105467
  34.9539568  49.5723955  -0.9718832  33.6055160  50.2177719  -0.7329737
  43.0350374  62.2134208  -5.3112462  43.0239014  61.8187007  -6.1831958
  43.1971013  61.4800281  -4.7178690  39.7557635  64.9971320  -6.3633278
  39.4647501  65.9016951  -6.4786612  40.3914619  65.0387848  -5.6489208
  40.6813842  62.3748169  -9.7731918  41.2777414  62.1504191 -10.4874955
  40.7388813  61.6332914  -9.1706470  42.1885530  58.6204921  -3.7451150
  41.4118864  59.1798842  -3.7548285  42.8276093  59.1061704  -3.2236279
  49.9806310  55.4031714  -9.9108173  49.3380690  55.6964247 -10.5568378
  49.4761239  55.2884635  -9.1054976  40.4431902  61.4290375  -4.1833183
  41.1846586  61.9675419  -4.4598359  39.7368887  62.0556664  -4.0261631
  45.9187241  63.5719515  -5.5861021  46.3270597  63.1301926  -6.3306389
  45.1964503  62.9972143  -5.3326828  42.2718312  58.5092122  -8.2127464
  43.1179507  58.9331536  -8.0692815  42.2116949  57.8525746  -7.5188901
  45.4217757  56.1696490  -6.5546290  45.1778689  56.9238551  -7.0912015
  45.6977687  56.5481838  -5.7199043  39.1793266  58.5830023  -3.3817873
  38.5491926  59.2646304  -3.1482476  39.0729353  58.4713105  -4.3264734
  42.2558651  65.1391102  -7.5485957  42.3203084  65.6011509  -6.7127785
  41.5469575  64.5088466  -7.4203647  38.4574008  52.8850789  -1.0192622
  38.0640954  52.3316987  -0.3444977  39.2740149  53.1961367  -0.6286104
  41.3741969  54.3008668  -3.4272365  42.1151683  54.9015821  -3.5067902
  41.6059892  53.5586306  -3.9854322  36.5183307  59.4865035  -5.1494135
  36.4036822  58.5850292  -4.8487036  35.6627825  59.7328732  -5.5009319
  43.5975145  67.4282776  -3.5506635  43.1538999  66.6419154  -3.8685730
  44.2592359  67.6161926  -4.2162744  42.1529437  65.2229705  -4.6801725
  42.6857774  64.4617993  -4.9102417  41.6243518  64.9303357  -3.9377571
  44.9274449  58.9656007  -6.9508882  45.2823837  59.1927480  -6.0914416
  45.5746580  59.2974384  -7.5731626  43.1993426  54.0832561  -6.2025069
  42.5521341  54.7822511  -6.2960592  43.9694441  54.5168705  -5.8348820
  46.6072224  64.3481414  -3.1274515  46.4557730  64.1191965  -4.0444432
  46.5976903  65.3052015  -3.1143170  43.3757560  61.9213326  -8.1428249
  44.3049620  62.0724486  -8.3159281  42.9548590  62.0097347  -8.9979602
  37.6995351  60.7313224  -7.4588292  37.5615149  59.9993462  -6.8576753
  38.6100275  60.6422124  -7.7404104  40.3277652  60.4433183  -7.9704613
  41.0377271  59.8026375  -8.0117994  40.2846960  60.6946078  -7.0478432
  39.0406586  57.4298401  -6.1508973  38.5043943  56.9789139  -5.4987377
  38.4523294  57.5644310  -6.8938509  39.3593588  67.6522850  -6.8759081
  40.0603048  68.2859333  -6.7229687  38.8888703  67.9937582  -7.6363442
  47.1594874  60.2067457  -9.0506531  46.5066325  60.4543365  -9.7054078
  47.5375254  59.3931596  -9.3844053  43.2082447  60.9487268  -2.5640494
  42.5323084  60.8481398  -1.8938118  44.0310081  60.7926482  -2.1004496
  34.9561306  67.1859205  -9.9427978  35.5414743  66.4402893  -9.8100074
  34.7586145  67.4963162  -9.0591314  36.4021996  56.6752478  -4.0787959
  37.0294035  56.2929556  -3.4650434  35.5449915  56.4566680  -3.7132266
  46.8016105  67.0815453  -2.4734223  47.3456009  67.6945412  -2.9679268
  46.2202949  67.6395032  -1.9567210  34.1527379  60.2796699  -6.1114613
  33.4109115  60.4279335  -5.5249983  33.8320123  60.5404965  -6.9747864
  39.6390053  55.9970384  -2.4174039  39.6878209  56.8732507  -2.7996269
  40.1812567  55.4547777  -2.9902396  50.1244899  66.5411508  -3.1372902
  49.3340443  66.5235646  -3.6768402  49.8878254  67.0799801  -2.3823865
  50.2442774  63.3903974  -5.8240173  50.2940779  63.2253981  -4.8824651
  50.1356697  62.5231233  -6.2142293  47.5346536  59.3734902  -4.5080867
  48.4356399  59.2341367  -4.7996869  47.6094511  59.5389357  -3.5682689
  41.8689342  56.7501757  -5.6627680  40.9992651  57.0435323  -5.9345092
  42.1048822  57.3342202  -4.9420417  49.9948159  60.9333530  -7.1118094
  50.4702281  61.1261176  -7.9199242  49.0713724  60.9892716  -7.3574710
  48.6949828  57.8099290  -8.8789788  49.6467251  57.9097388  -8.8577564
  48.5253278  57.0177559  -8.3691704  51.3232394  57.8216453  -9.7189205
  50.8071443  57.0374910  -9.9059277  52.2072343  57.4935170  -9.5542686
  42.8959929  63.9519209  -2.2619628  43.8162939  64.1297808  -2.0679581
  42.8609512  63.0075254  -2.4139928  40.7649867  57.4353449  -0.2294097
  40.6646594  58.3847806  -0.2982006  40.5471409  57.1071688  -1.1018027
  40.6281137  60.8650588  -1.4129036  40.1448219  61.6650948  -1.2065147
  40.7142076  60.8758533  -2.3661592  36.5554475  64.7555123  -9.3760602
  37.5097728  64.7239065  -9.4430670  36.3566998  64.2945747  -8.5610376
  37.1453857  63.3256239  -6.8089804  37.9646746  63.8200318  -6.7854967
  37.4190664  62.4088207  -6.8372237  44.9242163  64.7275220  -0.6105467
  45.7933323  64.9015873  -0.9718832  44.4448915  65.5469637  -0.7329737
  36.7386262  54.8061990  -2.0122593  37.6017724  54.4498795  -1.8019268
  36.1651673  54.4675885  -1.3247189  49.2967763  68.2142707  -1.0192622
  48.9034708  67.6608905  -0.3444977  50.1133903  68.5253285  -0.6286104
  51.6043622  72.7645367  -0.2294097  51.5040348  73.7139724  -0.2982006
  51.3865164  72.4363606  -1.1018027  47.5780016  70.1353908  -2.0122593
  48.4411478  69.7790712  -1.8019268  47.0045427  69.7967802  -1.3247189
 107.2592384 107.2592384 107.2592384 109.4712190 109.4712190 109.4712190
